/*--------------------------------*- C++ -*----------------------------------*\
| =========                 |                                                 |
| \\      /  F ield         | OpenFOAM: The Open Source CFD Toolbox           |
|  \\    /   O peration     | Version:  v1806                                 |
|   \\  /    A nd           | Web:      www.OpenFOAM.com                      |
|    \\/     M anipulation  |                                                 |
\*---------------------------------------------------------------------------*/
FoamFile
{
    version     2.0;
    format      ascii;
    class       volScalarField;
    location    "0";
    object      aspectRatio;
}
// * * * * * * * * * * * * * * * * * * * * * * * * * * * * * * * * * * * * * //

dimensions      [0 0 0 0 0 0 0];


internalField   nonuniform List<scalar> 
69504
(
7.64598
7.53354
7.42293
7.31411
7.20705
7.10173
6.99811
6.89617
6.79588
6.69721
6.60014
6.50464
6.41069
6.31825
6.22731
6.13784
6.04981
5.96321
5.87801
5.79418
5.71171
5.63058
5.55075
5.47222
5.39495
5.31894
5.24415
5.17057
5.09818
5.02696
4.9569
4.88796
4.82015
4.75343
4.68779
4.62321
4.55968
4.49718
4.43569
4.3752
4.31569
4.25714
4.19955
4.14289
4.08715
4.03232
3.97838
3.92532
3.87312
3.82178
3.77127
3.72159
3.67272
3.62465
3.57736
3.53086
3.48511
3.44012
3.39587
3.35235
3.30954
3.26745
3.22605
3.18534
3.1453
3.10593
3.06721
3.02914
2.99171
2.95491
2.91872
2.88315
2.84817
2.81379
2.77999
2.74677
2.71411
2.68202
2.65047
2.61947
2.58901
2.55907
2.52966
2.50076
2.47237
2.44449
2.4171
2.39019
2.36377
2.33783
2.31235
2.28734
2.26279
2.2387
2.21505
2.19185
2.16908
2.14675
2.12484
2.10336
2.0823
2.06165
2.04142
2.02159
2.00217
1.98314
1.96451
1.94628
1.92843
1.91097
1.89389
1.8772
1.86088
1.84494
1.82938
1.81418
1.79936
1.7849
1.77082
1.7571
1.74374
1.73075
1.71812
1.70586
1.69396
1.68243
1.67126
1.66045
1.65002
1.63995
1.63025
1.62092
1.61197
1.60339
1.5952
1.58738
1.57996
1.57293
1.56629
1.56006
1.55424
1.54884
1.54386
1.53931
1.5352
1.53154
1.52835
1.52562
1.52338
1.52164
1.52041
1.51971
1.51956
1.51998
1.52098
1.52258
1.52483
1.52773
1.53132
1.53563
1.5407
1.54656
1.55325
1.56083
1.56933
1.57882
1.58936
7.59478
7.48251
7.37206
7.2634
7.1565
7.05134
6.94789
6.84611
6.74599
6.64749
6.55058
6.45525
6.36146
6.26919
6.17842
6.08911
6.00126
5.91482
5.82978
5.74613
5.66382
5.58285
5.50319
5.42481
5.34771
5.27185
5.19722
5.1238
5.05157
4.98051
4.91059
4.84181
4.77415
4.70758
4.64208
4.57765
4.51426
4.4519
4.39055
4.3302
4.27082
4.21241
4.15495
4.09842
4.04281
3.9881
3.93428
3.88134
3.82926
3.77803
3.72764
3.67806
3.6293
3.58134
3.53415
3.48775
3.4421
3.3972
3.35304
3.3096
3.26688
3.22487
3.18354
3.1429
3.10294
3.06363
3.02498
2.98697
2.9496
2.91285
2.87671
2.84118
2.80625
2.77191
2.73814
2.70495
2.67232
2.64025
2.60872
2.57773
2.54728
2.51734
2.48793
2.45903
2.43063
2.40273
2.37531
2.34839
2.32193
2.29595
2.27044
2.24538
2.22078
2.19662
2.17291
2.14963
2.12679
2.10437
2.08237
2.06079
2.03963
2.01887
1.99851
1.97856
1.95899
1.93982
1.92104
1.90264
1.88462
1.86698
1.84972
1.83282
1.81629
1.80013
1.78433
1.76889
1.75381
1.73908
1.72471
1.7107
1.69703
1.68371
1.67075
1.65813
1.64586
1.63393
1.62235
1.61112
1.60024
1.5897
1.57951
1.56968
1.56019
1.55105
1.54227
1.53385
1.52578
1.51808
1.51075
1.50378
1.49719
1.49098
1.48515
1.47971
1.47467
1.47003
1.46581
1.462
1.45863
1.45569
1.4532
1.45117
1.44962
1.44856
1.448
1.44796
1.44846
1.44952
1.45116
1.4534
1.45626
1.45978
1.46399
1.46891
1.47458
1.48105
1.48834
7.54185
7.42976
7.31949
7.21102
7.10431
6.99933
6.89607
6.79448
6.69454
6.59623
6.49951
6.40436
6.31076
6.21868
6.12809
6.03898
5.9513
5.86505
5.7802
5.69673
5.61461
5.53381
5.45433
5.37614
5.29921
5.22353
5.14908
5.07584
5.00378
4.93288
4.86314
4.79453
4.72703
4.66062
4.59529
4.53102
4.46779
4.40559
4.34439
4.28419
4.22496
4.1667
4.10938
4.053
3.99753
3.94296
3.88928
3.83647
3.78452
3.73342
3.68315
3.6337
3.58506
3.53721
3.49015
3.44385
3.39831
3.35352
3.30946
3.26613
3.2235
3.18158
3.14035
3.0998
3.05992
3.02069
2.98212
2.94419
2.90688
2.8702
2.83413
2.79866
2.76378
2.72949
2.69577
2.66262
2.63003
2.598
2.5665
2.53554
2.50511
2.4752
2.4458
2.41691
2.38852
2.36061
2.3332
2.30626
2.27979
2.2538
2.22826
2.20317
2.17853
2.15433
2.13057
2.10724
2.08434
2.06186
2.03979
2.01813
1.99688
1.97603
1.95558
1.93551
1.91584
1.89655
1.87763
1.8591
1.84093
1.82314
1.80571
1.78864
1.77193
1.75557
1.73957
1.72392
1.70861
1.69365
1.67903
1.66476
1.65082
1.63722
1.62395
1.61102
1.59842
1.58615
1.57421
1.56261
1.55133
1.54038
1.52976
1.51947
1.50952
1.49989
1.49059
1.48163
1.473
1.46471
1.45676
1.44915
1.44188
1.43496
1.42839
1.42218
1.41632
1.41083
1.40571
1.40096
1.3966
1.39263
1.38905
1.38588
1.38313
1.3808
1.3789
1.37746
1.37647
1.37596
1.37594
1.37643
1.37745
1.379
1.38113
1.38384
1.38717
1.39114
1.39578
7.48714
7.37526
7.2652
7.15693
7.05043
6.94567
6.84261
6.74123
6.6415
6.5434
6.44689
6.35196
6.25856
6.16669
6.07631
5.9874
5.89993
5.81389
5.72924
5.64597
5.56404
5.48345
5.40417
5.32618
5.24945
5.17396
5.0997
5.02665
4.95478
4.88407
4.81452
4.74609
4.67877
4.61254
4.54739
4.4833
4.42024
4.35821
4.29719
4.23715
4.1781
4.12
4.06284
4.00661
3.9513
3.89688
3.84335
3.79069
3.73889
3.68793
3.63781
3.5885
3.53999
3.49227
3.44534
3.39917
3.35375
3.30908
3.26514
3.22192
3.17941
3.1376
3.09647
3.05602
3.01624
2.97711
2.93863
2.90078
2.86357
2.82697
2.79097
2.75558
2.72077
2.68655
2.65289
2.61981
2.58727
2.55529
2.52384
2.49292
2.46253
2.43266
2.40329
2.37442
2.34605
2.31817
2.29077
2.26384
2.23738
2.21137
2.18583
2.16073
2.13608
2.11186
2.08807
2.06471
2.04176
2.01924
1.99712
1.9754
1.95409
1.93317
1.91264
1.89249
1.87273
1.85334
1.83432
1.81567
1.79739
1.77947
1.7619
1.74469
1.72782
1.71131
1.69513
1.6793
1.6638
1.64864
1.63381
1.61931
1.60514
1.59129
1.57777
1.56456
1.55168
1.53911
1.52686
1.51493
1.50331
1.49201
1.48101
1.47033
1.45997
1.44991
1.44016
1.43073
1.42161
1.41281
1.40432
1.39615
1.38829
1.38076
1.37355
1.36666
1.3601
1.35387
1.34798
1.34242
1.33721
1.33234
1.32783
1.32368
1.3199
1.31648
1.31345
1.31081
1.30857
1.30674
1.30532
1.30434
1.3038
1.30371
1.3041
1.30498
1.30637
1.30828
1.31074
7.43062
7.31897
7.20914
7.10111
6.99484
6.89031
6.78749
6.68634
6.58685
6.48898
6.3927
6.29799
6.20483
6.11319
6.02304
5.93435
5.84711
5.76129
5.67687
5.59382
5.51212
5.43175
5.35268
5.2749
5.19839
5.12312
5.04907
4.97622
4.90456
4.83406
4.76471
4.69649
4.62937
4.56334
4.49838
4.43448
4.37162
4.30978
4.24894
4.18909
4.13021
4.07229
4.01531
3.95926
3.90412
3.84987
3.79651
3.74401
3.69237
3.64158
3.5916
3.54245
3.49409
3.44652
3.39973
3.3537
3.30843
3.26389
3.22008
3.17699
3.13461
3.09292
3.05191
3.01158
2.97191
2.9329
2.89452
2.85678
2.81967
2.78316
2.74726
2.71196
2.67724
2.6431
2.60953
2.57651
2.54405
2.51213
2.48075
2.4499
2.41956
2.38974
2.36042
2.3316
2.30326
2.27542
2.24804
2.22114
2.1947
2.16872
2.14318
2.11809
2.09344
2.06922
2.04542
2.02205
1.99909
1.97654
1.95439
1.93264
1.91128
1.89032
1.86973
1.84953
1.8297
1.81024
1.79114
1.77241
1.75403
1.73601
1.71833
1.701
1.68401
1.66736
1.65105
1.63507
1.61941
1.60408
1.58908
1.57439
1.56002
1.54597
1.53222
1.51879
1.50567
1.49285
1.48033
1.46812
1.45621
1.4446
1.43328
1.42227
1.41155
1.40112
1.39099
1.38116
1.37162
1.36237
1.35342
1.34476
1.3364
1.32834
1.32058
1.31311
1.30595
1.29909
1.29253
1.28628
1.28034
1.27472
1.26941
1.26443
1.25977
1.25544
1.25144
1.24779
1.24449
1.24154
1.23895
1.23674
1.2349
1.23345
1.2324
1.23177
1.23155
1.23177
1.23244
7.37226
7.26086
7.15129
7.04352
6.93751
6.83324
6.73067
6.62979
6.53055
6.43293
6.33691
6.24246
6.14955
6.05815
5.96825
5.87982
5.79282
5.70725
5.62307
5.54026
5.45881
5.37867
5.29985
5.22231
5.14603
5.07099
4.99717
4.92455
4.85312
4.78284
4.71371
4.64571
4.57881
4.51299
4.44825
4.38456
4.3219
4.26027
4.19963
4.13999
4.08131
4.02358
3.9668
3.91094
3.85598
3.80192
3.74875
3.69643
3.64497
3.59434
3.54454
3.49556
3.44737
3.39996
3.35333
3.30746
3.26234
3.21796
3.1743
3.13135
3.08911
3.04756
3.00669
2.9665
2.92696
2.88807
2.84982
2.8122
2.7752
2.73881
2.70302
2.66782
2.6332
2.59916
2.56569
2.53276
2.50039
2.46856
2.43726
2.40648
2.37622
2.34646
2.31721
2.28845
2.26018
2.23238
2.20506
2.1782
2.1518
2.12585
2.10035
2.07529
2.05066
2.02645
2.00267
1.9793
1.95634
1.93379
1.91164
1.88987
1.8685
1.84751
1.82689
1.80665
1.78678
1.76727
1.74812
1.72933
1.71089
1.69279
1.67503
1.65762
1.64053
1.62378
1.60736
1.59126
1.57548
1.56002
1.54487
1.53003
1.5155
1.50127
1.48735
1.47373
1.4604
1.44737
1.43464
1.42219
1.41004
1.39817
1.38658
1.37528
1.36427
1.35353
1.34307
1.3329
1.323
1.31338
1.30404
1.29497
1.28619
1.27768
1.26944
1.26149
1.25381
1.24641
1.2393
1.23246
1.22591
1.21964
1.21366
1.20798
1.20258
1.19748
1.19268
1.18818
1.18399
1.18011
1.17655
1.1733
1.17039
1.16781
1.16558
1.16369
1.16216
1.16099
1.16021
7.31202
7.20091
7.09163
6.98414
6.87842
6.77443
6.67214
6.57154
6.47258
6.37524
6.2795
6.18532
6.09269
6.00157
5.91194
5.82378
5.73705
5.65175
5.56783
5.48529
5.4041
5.32422
5.24566
5.16837
5.09234
5.01756
4.94399
4.87162
4.80043
4.7304
4.66151
4.59374
4.52708
4.4615
4.39699
4.33353
4.2711
4.20969
4.14928
4.08985
4.03139
3.97388
3.9173
3.86165
3.8069
3.75305
3.70007
3.64795
3.59668
3.54625
3.49664
3.44784
3.39983
3.35261
3.30615
3.26046
3.21551
3.17129
3.1278
3.08502
3.04294
3.00154
2.96083
2.92078
2.88139
2.84264
2.80453
2.76705
2.73018
2.69392
2.65826
2.62318
2.58869
2.55476
2.5214
2.48859
2.45632
2.42459
2.39339
2.3627
2.33253
2.30287
2.2737
2.24502
2.21682
2.18909
2.16184
2.13504
2.1087
2.08281
2.05736
2.03234
2.00776
1.98359
1.95984
1.9365
1.91357
1.89103
1.86889
1.84714
1.82577
1.80478
1.78416
1.7639
1.74401
1.72448
1.70531
1.68648
1.66799
1.64985
1.63204
1.61457
1.59742
1.58059
1.56409
1.5479
1.53203
1.51647
1.50121
1.48625
1.4716
1.45724
1.44318
1.4294
1.41592
1.40272
1.3898
1.37717
1.36481
1.35273
1.34093
1.3294
1.31813
1.30714
1.29642
1.28596
1.27576
1.26583
1.25616
1.24676
1.23761
1.22873
1.2201
1.21174
1.20363
1.19579
1.1882
1.18088
1.17381
1.16701
1.16047
1.1542
1.14819
1.14244
1.13697
1.13177
1.12684
1.12219
1.11782
1.11373
1.10993
1.10643
1.10321
1.1003
1.0977
1.0954
1.09343
7.24988
7.13909
7.03012
6.92294
6.81753
6.71385
6.61187
6.51158
6.41292
6.31589
6.22045
6.12658
6.03424
5.94342
5.85409
5.76622
5.67978
5.59477
5.51114
5.42889
5.34797
5.26839
5.1901
5.11309
5.03734
4.96282
4.88953
4.81743
4.7465
4.67674
4.60811
4.5406
4.47419
4.40886
4.3446
4.28139
4.21921
4.15804
4.09787
4.03868
3.98045
3.92317
3.86683
3.8114
3.75688
3.70324
3.65048
3.59858
3.54752
3.4973
3.4479
3.3993
3.35149
3.30447
3.25821
3.2127
3.16794
3.12391
3.0806
3.038
2.99609
2.95487
2.91433
2.87445
2.83522
2.79663
2.75868
2.72135
2.68464
2.64852
2.613
2.57807
2.54371
2.50992
2.47669
2.444
2.41186
2.38025
2.34917
2.3186
2.28853
2.25897
2.22991
2.20132
2.17322
2.14559
2.11842
2.09171
2.06545
2.03963
2.01425
1.9893
1.96477
1.94067
1.91697
1.89368
1.87079
1.8483
1.82619
1.80447
1.78313
1.76216
1.74156
1.72132
1.70143
1.6819
1.66272
1.64389
1.62539
1.60722
1.58939
1.57188
1.5547
1.53783
1.52128
1.50504
1.4891
1.47347
1.45813
1.4431
1.42835
1.41389
1.39972
1.38584
1.37223
1.3589
1.34585
1.33307
1.32056
1.30831
1.29633
1.28461
1.27315
1.26196
1.25101
1.24033
1.22989
1.21971
1.20978
1.20009
1.19065
1.18146
1.17252
1.16382
1.15536
1.14715
1.13918
1.13145
1.12396
1.11672
1.10972
1.10296
1.09645
1.09018
1.08415
1.07837
1.07284
1.06756
1.06253
1.05775
1.05322
1.04896
1.04495
1.04121
1.03773
1.03453
1.03159
7.18583
7.07537
6.96675
6.85991
6.75483
6.65149
6.54985
6.44988
6.35156
6.25486
6.15975
6.0662
5.97419
5.88369
5.79468
5.70712
5.62101
5.5363
5.45299
5.37104
5.29044
5.21115
5.13317
5.05646
4.981
4.90678
4.83378
4.76197
4.69133
4.62185
4.5535
4.48627
4.42014
4.35508
4.29109
4.22815
4.16623
4.10533
4.04541
3.98648
3.92851
3.87148
3.81538
3.7602
3.70592
3.65252
3.6
3.54833
3.49751
3.44751
3.39833
3.34995
3.30237
3.25556
3.20951
3.16422
3.11966
3.07584
3.03273
2.99032
2.94861
2.90758
2.86722
2.82753
2.78848
2.75007
2.7123
2.67514
2.63859
2.60264
2.56729
2.53251
2.49831
2.46467
2.43159
2.39905
2.36705
2.33558
2.30462
2.27419
2.24425
2.21482
2.18587
2.15741
2.12942
2.10189
2.07483
2.04822
2.02206
1.99634
1.97105
1.94619
1.92174
1.89772
1.8741
1.85088
1.82806
1.80562
1.78358
1.76191
1.74062
1.71969
1.69913
1.67893
1.65908
1.63957
1.62041
1.60159
1.58311
1.56495
1.54712
1.52961
1.51241
1.49553
1.47896
1.46269
1.44672
1.43105
1.41567
1.40058
1.38578
1.37126
1.35702
1.34306
1.32937
1.31595
1.30279
1.2899
1.27728
1.26491
1.2528
1.24094
1.22933
1.21798
1.20687
1.196
1.18538
1.175
1.16486
1.15495
1.14528
1.13585
1.12665
1.11768
1.10894
1.10043
1.09215
1.0841
1.07627
1.06867
1.0613
1.05415
1.04723
1.04053
1.03406
1.02781
1.02179
1.016
1.01044
1.0051
1.00001
1.00491
1.00963
1.01414
1.01846
1.02256
1.02644
7.11983
7.00975
6.90149
6.79502
6.69031
6.58733
6.48605
6.38645
6.28849
6.19214
6.09738
6.00418
5.91252
5.82237
5.7337
5.64649
5.56072
5.47635
5.39337
5.31176
5.23148
5.15252
5.07486
4.99847
4.92334
4.84943
4.77674
4.70524
4.63491
4.56574
4.49769
4.43076
4.36493
4.30017
4.23647
4.17381
4.11218
4.05156
3.99192
3.93326
3.87557
3.81881
3.76298
3.70806
3.65404
3.60091
3.54864
3.49722
3.44665
3.3969
3.34796
3.29983
3.25248
3.2059
3.16009
3.11502
3.07069
3.02709
2.9842
2.94201
2.90051
2.85969
2.81954
2.78004
2.7412
2.70299
2.6654
2.62843
2.59207
2.55631
2.52114
2.48654
2.45251
2.41904
2.38612
2.35375
2.32191
2.2906
2.2598
2.22951
2.19973
2.17043
2.14163
2.1133
2.08544
2.05805
2.03111
2.00463
1.97858
1.95298
1.9278
1.90304
1.87871
1.85478
1.83125
1.80813
1.7854
1.76305
1.74108
1.71949
1.69827
1.67741
1.65692
1.63677
1.61698
1.59753
1.57841
1.55964
1.54119
1.52306
1.50526
1.48777
1.47059
1.45373
1.43716
1.42089
1.40492
1.38924
1.37385
1.35874
1.34392
1.32937
1.31509
1.30108
1.28734
1.27387
1.26065
1.24769
1.23499
1.22254
1.21034
1.19838
1.18667
1.1752
1.16396
1.15297
1.14221
1.13168
1.12138
1.11131
1.10147
1.09185
1.08245
1.07327
1.06431
1.05558
1.04705
1.03875
1.03065
1.02277
1.01511
1.00765
1.00041
1.00667
1.01364
1.02048
1.0272
1.03378
1.04022
1.04652
1.05266
1.05864
1.06444
1.07008
1.07552
1.08078
1.08583
7.05188
6.9422
6.83434
6.72827
6.62395
6.52137
6.42048
6.32126
6.22368
6.12772
6.03334
5.94052
5.84924
5.75946
5.67116
5.58432
5.49891
5.4149
5.33228
5.25102
5.1711
5.0925
5.01518
4.93914
4.86435
4.79078
4.71843
4.64726
4.57726
4.50841
4.44069
4.37408
4.30857
4.24413
4.18074
4.11839
4.05707
3.99675
3.93741
3.87905
3.82165
3.76518
3.70964
3.65501
3.60127
3.54841
3.49642
3.44528
3.39497
3.34549
3.29681
3.24894
3.20184
3.15552
3.10996
3.06514
3.02105
2.97769
2.93504
2.89308
2.85182
2.81122
2.7713
2.73203
2.6934
2.6554
2.61803
2.58127
2.54512
2.50956
2.47458
2.44018
2.40635
2.37307
2.34034
2.30815
2.27649
2.24535
2.21472
2.18461
2.15499
2.12586
2.09721
2.06904
2.04134
2.01409
1.9873
1.96096
1.93505
1.90958
1.88454
1.85991
1.8357
1.81189
1.78849
1.76547
1.74285
1.72061
1.69875
1.67726
1.65613
1.63536
1.61495
1.59489
1.57518
1.5558
1.53676
1.51805
1.49966
1.48159
1.46384
1.44641
1.42927
1.41245
1.39592
1.37968
1.36373
1.34808
1.3327
1.3176
1.30278
1.28823
1.27395
1.25993
1.24618
1.23268
1.21944
1.20645
1.1937
1.18121
1.16895
1.15694
1.14516
1.13362
1.12231
1.11122
1.10037
1.08974
1.07933
1.06914
1.05917
1.04942
1.03988
1.03055
1.02143
1.01252
1.00382
1.0047
1.01315
1.02152
1.02982
1.03804
1.04618
1.05423
1.06217
1.07002
1.07776
1.08538
1.09287
1.10024
1.10747
1.11456
1.1215
1.12828
1.13489
1.14134
1.1476
6.98196
6.87272
6.76529
6.65964
6.55575
6.45359
6.35312
6.25432
6.15715
6.0616
5.96763
5.87522
5.78433
5.69495
5.60705
5.5206
5.43558
5.35197
5.26973
5.18886
5.10931
5.03108
4.95414
4.87847
4.80404
4.73084
4.65884
4.58803
4.51839
4.44989
4.38252
4.31625
4.25108
4.18697
4.12392
4.0619
4.00091
3.94091
3.8819
3.82386
3.76677
3.71061
3.65538
3.60105
3.54762
3.49506
3.44336
3.39251
3.3425
3.2933
3.24491
3.19731
3.1505
3.10445
3.05915
3.0146
2.97078
2.92768
2.88528
2.84358
2.80256
2.76222
2.72254
2.68351
2.64512
2.60736
2.57022
2.53369
2.49776
2.46242
2.42766
2.39348
2.35985
2.32678
2.29426
2.26227
2.23081
2.19987
2.16944
2.13951
2.11008
2.08113
2.05266
2.02467
1.99714
1.97006
1.94344
1.91726
1.89151
1.8662
1.8413
1.81683
1.79276
1.7691
1.74583
1.72295
1.70046
1.67835
1.65661
1.63524
1.61423
1.59358
1.57328
1.55332
1.53371
1.51443
1.49548
1.47686
1.45856
1.44058
1.42291
1.40555
1.38848
1.37172
1.35525
1.33908
1.32318
1.30758
1.29224
1.27719
1.2624
1.24788
1.23363
1.21963
1.20589
1.1924
1.17916
1.16617
1.15343
1.14092
1.12865
1.11661
1.10481
1.09323
1.08188
1.07075
1.05984
1.04915
1.03868
1.02842
1.01837
1.00853
1.00111
1.01065
1.02016
1.02965
1.03909
1.0485
1.05786
1.06716
1.07641
1.0856
1.09472
1.10377
1.11274
1.12162
1.13041
1.1391
1.14769
1.15616
1.16452
1.17276
1.18086
1.18882
1.19664
1.20431
1.21181
6.91008
6.80129
6.69432
6.58914
6.4857
6.38399
6.28397
6.18561
6.08889
5.99378
5.90025
5.80827
5.71781
5.62886
5.54138
5.45536
5.37075
5.28755
5.20573
5.12526
5.04612
4.96829
4.89175
4.81647
4.74243
4.66962
4.59801
4.52758
4.45831
4.39018
4.32318
4.25728
4.19247
4.12873
4.06603
4.00437
3.94372
3.88408
3.82541
3.76771
3.71095
3.65513
3.60023
3.54623
3.49312
3.44088
3.3895
3.33896
3.28926
3.24037
3.19228
3.14498
3.09846
3.05271
3.00771
2.96344
2.9199
2.87708
2.83496
2.79354
2.75279
2.71271
2.6733
2.63453
2.59639
2.55889
2.522
2.48572
2.45003
2.41494
2.38042
2.34647
2.31307
2.28023
2.24793
2.21617
2.18493
2.1542
2.12398
2.09426
2.06503
2.03629
2.00802
1.98022
1.95289
1.926
1.89956
1.87357
1.848
1.82286
1.79814
1.77383
1.74993
1.72643
1.70332
1.68061
1.65827
1.6363
1.61471
1.59348
1.57261
1.5521
1.53193
1.5121
1.49261
1.47346
1.45463
1.43612
1.41793
1.40006
1.38249
1.36522
1.34826
1.33159
1.31521
1.29911
1.2833
1.26777
1.25251
1.23752
1.22279
1.20833
1.19413
1.18018
1.16649
1.15304
1.13984
1.12688
1.11416
1.10168
1.08942
1.0774
1.0656
1.05403
1.04267
1.03153
1.02061
1.0099
1.0006
1.01101
1.02143
1.03185
1.04226
1.05267
1.06307
1.07345
1.08381
1.09415
1.10446
1.11473
1.12496
1.13515
1.14529
1.15537
1.16539
1.17534
1.18521
1.19501
1.20473
1.21435
1.22387
1.23328
1.24259
1.25177
1.26083
1.26976
1.27854
6.83622
6.72793
6.62145
6.51675
6.41381
6.31258
6.21304
6.11516
6.01891
5.92427
5.8312
5.73968
5.64969
5.56119
5.47417
5.38859
5.30443
5.22167
5.14028
5.06025
4.98154
4.90413
4.82801
4.75315
4.67953
4.60713
4.53593
4.46591
4.39704
4.32932
4.26271
4.1972
4.13278
4.06942
4.0071
3.94582
3.88554
3.82626
3.76796
3.71062
3.65423
3.59877
3.54422
3.49056
3.4378
3.3859
3.33486
3.28466
3.23528
3.18672
3.13896
3.09198
3.04578
3.00034
2.95565
2.91169
2.86846
2.82594
2.78412
2.74298
2.70253
2.66274
2.62361
2.58512
2.54726
2.51003
2.47341
2.4374
2.40198
2.36714
2.33288
2.29919
2.26605
2.23345
2.2014
2.16988
2.13887
2.10838
2.07839
2.0489
2.0199
1.99138
1.96333
1.93575
1.90862
1.88195
1.85572
1.82992
1.80456
1.77962
1.75509
1.73097
1.70726
1.68394
1.66101
1.63847
1.61631
1.59452
1.57309
1.55203
1.53132
1.51096
1.49094
1.47127
1.45192
1.43291
1.41422
1.39585
1.3778
1.36005
1.34261
1.32547
1.30862
1.29206
1.2758
1.25981
1.2441
1.22867
1.21351
1.19861
1.18398
1.1696
1.15548
1.14161
1.12799
1.11462
1.10148
1.08858
1.07592
1.06348
1.05128
1.0393
1.02754
1.016
1.00467
1.00648
1.01765
1.02884
1.04007
1.05132
1.06259
1.07387
1.08517
1.09648
1.10779
1.11911
1.13042
1.14172
1.15301
1.16428
1.17553
1.18675
1.19794
1.20908
1.22019
1.23125
1.24225
1.25319
1.26406
1.27486
1.28558
1.29621
1.30675
1.31719
1.32752
1.33774
1.34784
6.76038
6.65263
6.54668
6.4425
6.34007
6.23936
6.14033
6.04296
5.94721
5.85307
5.7605
5.66948
5.57997
5.49196
5.40541
5.32031
5.23662
5.15433
5.07341
4.99384
4.91559
4.83864
4.76297
4.68855
4.61538
4.54341
4.47265
4.40305
4.33461
4.26731
4.20112
4.13603
4.07202
4.00907
3.94716
3.88627
3.8264
3.76751
3.7096
3.65264
3.59663
3.54155
3.48737
3.43409
3.38169
3.33016
3.27948
3.22963
3.18061
3.1324
3.08498
3.03835
2.99249
2.94738
2.90302
2.85939
2.81649
2.77429
2.73278
2.69197
2.65182
2.61234
2.57351
2.53533
2.49777
2.46083
2.42451
2.38878
2.35364
2.31909
2.28511
2.25169
2.21882
2.18649
2.1547
2.12344
2.09269
2.06246
2.03272
2.00348
1.97473
1.94645
1.91864
1.89129
1.8644
1.83795
1.81195
1.78638
1.76123
1.7365
1.71219
1.68828
1.66478
1.64166
1.61894
1.59659
1.57462
1.55302
1.53178
1.5109
1.49038
1.4702
1.45036
1.43085
1.41168
1.39283
1.3743
1.35609
1.33819
1.3206
1.3033
1.28631
1.2696
1.25319
1.23705
1.2212
1.20562
1.19031
1.17527
1.16049
1.14597
1.13171
1.11769
1.10393
1.09041
1.07712
1.06408
1.05127
1.03869
1.02634
1.01421
1.0023
1.00948
1.02131
1.0332
1.04514
1.05712
1.06916
1.08123
1.09335
1.1055
1.11769
1.1299
1.14214
1.1544
1.16668
1.17897
1.19127
1.20357
1.21588
1.22818
1.24046
1.25274
1.26499
1.27722
1.28941
1.30157
1.31368
1.32575
1.33777
1.34972
1.3616
1.37341
1.38514
1.39679
1.40834
1.41979
6.68259
6.5754
6.47001
6.36639
6.26451
6.16435
6.06586
5.96903
5.87382
5.78021
5.68817
5.59766
5.50868
5.42118
5.33514
5.25055
5.16736
5.08557
5.00514
4.92606
4.84829
4.77182
4.69663
4.62269
4.54998
4.47848
4.40818
4.33904
4.27105
4.2042
4.13846
4.07381
4.01023
3.94771
3.88623
3.82577
3.76631
3.70784
3.65035
3.5938
3.5382
3.48351
3.42973
3.37685
3.32484
3.27369
3.22339
3.17393
3.12528
3.07744
3.03039
2.98413
2.93862
2.89388
2.84987
2.80659
2.76403
2.72217
2.68101
2.64053
2.60071
2.56156
2.52306
2.48519
2.44795
2.41133
2.37532
2.3399
2.30507
2.27082
2.23713
2.204
2.17143
2.13939
2.10789
2.0769
2.04644
2.01648
1.98701
1.95804
1.92955
1.90153
1.87398
1.84689
1.82025
1.79405
1.76829
1.74296
1.71806
1.69357
1.66949
1.64581
1.62253
1.59964
1.57714
1.55501
1.53325
1.51186
1.49083
1.47016
1.44983
1.42985
1.4102
1.39089
1.37191
1.35325
1.3349
1.31687
1.29915
1.28172
1.2646
1.24777
1.23123
1.21497
1.199
1.1833
1.16787
1.15271
1.13781
1.12317
1.10879
1.09466
1.08078
1.06714
1.05374
1.04058
1.02765
1.01495
1.00248
1.00986
1.02227
1.03477
1.04733
1.05997
1.07268
1.08546
1.0983
1.1112
1.12416
1.13717
1.15024
1.16336
1.17652
1.18972
1.20296
1.21623
1.22954
1.24287
1.25622
1.26959
1.28297
1.29636
1.30975
1.32314
1.33653
1.3499
1.36325
1.37657
1.38987
1.40313
1.41635
1.42952
1.44264
1.45569
1.46868
1.48159
1.49443
6.60286
6.49626
6.39147
6.28844
6.18715
6.08756
5.98965
5.89339
5.79875
5.7057
5.61422
5.52427
5.43583
5.34888
5.26338
5.17932
5.09667
5.0154
4.9355
4.85693
4.77968
4.70372
4.62903
4.55559
4.48338
4.41238
4.34256
4.2739
4.2064
4.14002
4.07474
4.01056
3.94745
3.88538
3.82436
3.76435
3.70534
3.64731
3.59025
3.53414
3.47896
3.4247
3.37134
3.31888
3.26728
3.21654
3.16665
3.11759
3.06934
3.02189
2.97523
2.92935
2.88423
2.83986
2.79623
2.75332
2.71113
2.66964
2.62883
2.58871
2.54925
2.51045
2.47229
2.43477
2.39787
2.36158
2.3259
2.29081
2.2563
2.22237
2.189
2.15619
2.12392
2.0922
2.061
2.03031
2.00015
1.97048
1.94131
1.91262
1.88441
1.85668
1.82941
1.80259
1.77622
1.75029
1.7248
1.69973
1.67508
1.65085
1.62702
1.6036
1.58056
1.55791
1.53565
1.51376
1.49223
1.47108
1.45027
1.42982
1.40972
1.38995
1.37052
1.35142
1.33265
1.31419
1.29605
1.27822
1.26069
1.24346
1.22653
1.20988
1.19353
1.17745
1.16165
1.14613
1.13087
1.11588
1.10115
1.08667
1.07245
1.05847
1.04474
1.03125
1.018
1.00498
1.00787
1.02079
1.03381
1.04693
1.06013
1.07343
1.08682
1.1003
1.11386
1.1275
1.14122
1.15502
1.1689
1.18284
1.19686
1.21094
1.22508
1.23928
1.25353
1.26784
1.28219
1.29658
1.31102
1.32549
1.33998
1.35451
1.36905
1.38362
1.39819
1.41276
1.42734
1.44191
1.45647
1.47102
1.48554
1.50003
1.51449
1.5289
1.54327
1.55758
1.57182
6.5212
6.41524
6.31107
6.20867
6.108
6.00903
5.91173
5.81607
5.72203
5.62958
5.53868
5.44932
5.36146
5.27509
5.19016
5.10667
5.02458
4.94387
4.86452
4.7865
4.70979
4.63437
4.56021
4.4873
4.41561
4.34513
4.27582
4.20768
4.14068
4.0748
4.01002
3.94633
3.88371
3.82213
3.76158
3.70205
3.64351
3.58595
3.52935
3.47369
3.41897
3.36516
3.31225
3.26022
3.20906
3.15876
3.10929
3.06065
3.01283
2.9658
2.91955
2.87408
2.82936
2.78539
2.74216
2.69964
2.65784
2.61673
2.57631
2.53656
2.49748
2.45905
2.42126
2.38409
2.34755
2.31162
2.27629
2.24155
2.20739
2.1738
2.14077
2.10829
2.07636
2.04496
2.01408
1.98372
1.95387
1.92452
1.89565
1.86728
1.83937
1.81194
1.78496
1.75844
1.73236
1.70672
1.68151
1.65672
1.63235
1.60839
1.58484
1.56168
1.53891
1.51652
1.49451
1.47288
1.45161
1.4307
1.41014
1.38993
1.37007
1.35054
1.33135
1.31248
1.29393
1.2757
1.25778
1.24016
1.22285
1.20583
1.18911
1.17267
1.15652
1.14064
1.12504
1.10971
1.09464
1.07984
1.06529
1.051
1.03695
1.02315
1.00959
1.00374
1.0171
1.03057
1.04416
1.05786
1.07168
1.0856
1.09963
1.11376
1.128
1.14235
1.15679
1.17133
1.18597
1.2007
1.21552
1.23043
1.24542
1.2605
1.27565
1.29088
1.30618
1.32155
1.33698
1.35247
1.36802
1.38363
1.39928
1.41497
1.4307
1.44647
1.46226
1.47808
1.49392
1.50977
1.52563
1.54149
1.55735
1.57319
1.58902
1.60482
1.6206
1.63634
1.65204
6.43763
6.33235
6.22885
6.1271
6.02709
5.92877
5.83212
5.7371
5.64369
5.55187
5.4616
5.37285
5.28561
5.19984
5.11552
5.03262
4.95113
4.87101
4.79223
4.71479
4.63866
4.5638
4.49021
4.41786
4.34672
4.27678
4.20802
4.14042
4.07395
4.0086
3.94435
3.88117
3.81906
3.75799
3.69795
3.63892
3.58087
3.5238
3.46769
3.41252
3.35827
3.30494
3.25249
3.20093
3.15023
3.10038
3.05137
3.00318
2.95579
2.9092
2.86339
2.81835
2.77406
2.73052
2.6877
2.6456
2.60421
2.56351
2.52349
2.48414
2.44545
2.40741
2.37001
2.33323
2.29707
2.26151
2.22655
2.19218
2.15839
2.12516
2.09248
2.06036
2.02878
1.99772
1.96719
1.93717
1.90765
1.87863
1.8501
1.82205
1.79447
1.76735
1.74069
1.71448
1.68871
1.66337
1.63847
1.61398
1.58991
1.56624
1.54297
1.5201
1.49761
1.47551
1.45377
1.43241
1.41141
1.39077
1.37048
1.35053
1.33092
1.31165
1.2927
1.27408
1.25578
1.23779
1.22011
1.20273
1.18565
1.16886
1.15237
1.13615
1.12022
1.10456
1.08918
1.07406
1.0592
1.0446
1.03026
1.01616
1.00231
1.01142
1.02528
1.03928
1.0534
1.06765
1.08203
1.09654
1.11117
1.12593
1.14082
1.15582
1.17094
1.18618
1.20154
1.21701
1.2326
1.24829
1.26409
1.27999
1.29599
1.3121
1.3283
1.34459
1.36097
1.37743
1.39398
1.41061
1.4273
1.44407
1.46091
1.47781
1.49476
1.51177
1.52882
1.54591
1.56305
1.58021
1.5974
1.61461
1.63183
1.64906
1.66629
1.68352
1.70074
1.71794
1.73511
6.35221
6.24763
6.14483
6.04379
5.94446
5.84683
5.75086
5.65651
5.56378
5.47262
5.383
5.29491
5.20831
5.12318
5.0395
4.95723
4.87636
4.79685
4.7187
4.64186
4.56633
4.49207
4.41907
4.3473
4.27675
4.20739
4.1392
4.07216
4.00625
3.94146
3.87775
3.81513
3.75356
3.69302
3.63351
3.575
3.51748
3.46093
3.40533
3.35066
3.29692
3.24408
3.19213
3.14106
3.09084
3.04148
2.99294
2.94522
2.8983
2.85217
2.80682
2.76223
2.71839
2.67529
2.63291
2.59125
2.55029
2.51001
2.47042
2.43149
2.39322
2.35559
2.31859
2.28222
2.24646
2.2113
2.17673
2.14275
2.10934
2.07649
2.04419
2.01244
1.98123
1.95054
1.92037
1.89071
1.86155
1.83288
1.80469
1.77698
1.74975
1.72297
1.69664
1.67076
1.64532
1.6203
1.59572
1.57155
1.54779
1.52443
1.50147
1.4789
1.45671
1.4349
1.41346
1.39239
1.37168
1.35132
1.33131
1.31164
1.29231
1.2733
1.25463
1.23627
1.21823
1.2005
1.18307
1.16595
1.14912
1.13258
1.11632
1.10035
1.08466
1.06923
1.05408
1.03919
1.02456
1.01018
1.00396
1.01815
1.03248
1.04696
1.06159
1.07636
1.09127
1.10633
1.12154
1.13688
1.15237
1.16799
1.18376
1.19966
1.2157
1.23187
1.24817
1.2646
1.28117
1.29785
1.31466
1.33159
1.34864
1.36581
1.38308
1.40047
1.41796
1.43556
1.45325
1.47105
1.48893
1.5069
1.52495
1.54309
1.56129
1.57957
1.59792
1.61632
1.63478
1.65329
1.67184
1.69043
1.70905
1.7277
1.74637
1.76505
1.78374
1.80243
1.82111
6.26495
6.16112
6.05906
5.95875
5.86016
5.76325
5.66799
5.57436
5.48232
5.39186
5.30294
5.21553
5.12961
5.04516
4.96214
4.88053
4.80031
4.72146
4.64395
4.56775
4.49285
4.41922
4.34684
4.27569
4.20575
4.13699
4.0694
4.00296
3.93764
3.87343
3.8103
3.74825
3.68725
3.62728
3.56832
3.51036
3.45339
3.39738
3.34231
3.28818
3.23497
3.18265
3.13122
3.08066
3.03095
2.98209
2.93405
2.88682
2.84039
2.79475
2.74988
2.70576
2.66239
2.61976
2.57785
2.53664
2.49613
2.45631
2.41716
2.37867
2.34083
2.30364
2.26707
2.23112
2.19578
2.16104
2.12688
2.09331
2.0603
2.02785
1.99595
1.96459
1.93377
1.90346
1.87367
1.84439
1.8156
1.7873
1.75948
1.73213
1.70525
1.67883
1.65285
1.62732
1.60222
1.57755
1.5533
1.52946
1.50603
1.483
1.46037
1.43811
1.41624
1.39475
1.37362
1.35286
1.33245
1.31239
1.29267
1.27329
1.25425
1.23554
1.21714
1.19907
1.18131
1.16385
1.14669
1.12984
1.11327
1.09699
1.081
1.06528
1.04984
1.03467
1.01976
1.00511
1.00937
1.02398
1.03876
1.05369
1.06879
1.08405
1.09947
1.11505
1.13078
1.14668
1.16274
1.17895
1.19532
1.21184
1.22852
1.24535
1.26233
1.27947
1.29675
1.31417
1.33174
1.34946
1.36731
1.3853
1.40343
1.42169
1.44008
1.45859
1.47723
1.49599
1.51487
1.53386
1.55296
1.57216
1.59147
1.61087
1.63036
1.64995
1.66961
1.68936
1.70917
1.72906
1.749
1.76901
1.78906
1.80915
1.82929
1.84945
1.86964
1.88985
1.91007
6.17591
6.07286
5.97159
5.87205
5.77422
5.67807
5.58356
5.49068
5.39938
5.30965
5.22145
5.13477
5.04956
4.96581
4.8835
4.80258
4.72306
4.64488
4.56805
4.49252
4.41828
4.34531
4.27358
4.20308
4.13378
4.06565
3.99869
3.93287
3.86817
3.80457
3.74205
3.68059
3.62019
3.56081
3.50243
3.44506
3.38865
3.33321
3.27871
3.22513
3.17247
3.1207
3.06981
3.01979
2.97061
2.92228
2.87476
2.82805
2.78213
2.73699
2.69263
2.64901
2.60613
2.56399
2.52256
2.48183
2.4418
2.40245
2.36376
2.32574
2.28836
2.25161
2.21549
2.17999
2.14509
2.11078
2.07705
2.04391
2.01132
1.97929
1.94781
1.91686
1.88644
1.85654
1.82715
1.79826
1.76986
1.74195
1.71451
1.68754
1.66104
1.63498
1.60938
1.58421
1.55947
1.53516
1.51126
1.48777
1.46469
1.442
1.4197
1.39779
1.37625
1.35508
1.33428
1.31384
1.29374
1.274
1.2546
1.23553
1.21679
1.19838
1.18028
1.1625
1.14503
1.12786
1.11099
1.09442
1.07813
1.06213
1.04641
1.03096
1.01579
1.00088
1.01396
1.02898
1.04417
1.05953
1.07507
1.09079
1.10668
1.12274
1.13898
1.1554
1.17199
1.18875
1.20569
1.2228
1.24008
1.25754
1.27516
1.29295
1.31091
1.32904
1.34733
1.36578
1.38439
1.40317
1.4221
1.44118
1.46042
1.47981
1.49934
1.51902
1.53884
1.55879
1.57888
1.5991
1.61945
1.63992
1.66051
1.68122
1.70203
1.72295
1.74397
1.76509
1.7863
1.80759
1.82896
1.8504
1.87191
1.89348
1.91511
1.93679
1.9585
1.98025
2.00203
6.08514
5.98292
5.88246
5.78373
5.6867
5.59135
5.49763
5.40553
5.31501
5.22605
5.13861
5.05268
4.96822
4.88521
4.80363
4.72345
4.64464
4.56718
4.49105