/*--------------------------------*- C++ -*----------------------------------*\
| =========                 |                                                 |
| \\      /  F ield         | OpenFOAM: The Open Source CFD Toolbox           |
|  \\    /   O peration     | Version:  v1806                                 |
|   \\  /    A nd           | Web:      www.OpenFOAM.com                      |
|    \\/     M anipulation  |                                                 |
\*---------------------------------------------------------------------------*/
FoamFile
{
    version     2.0;
    format      ascii;
    class       volScalarField;
    location    "0";
    object      cellVolume;
}
// * * * * * * * * * * * * * * * * * * * * * * * * * * * * * * * * * * * * * //

dimensions      [0 3 0 0 0 0 0];


internalField   nonuniform List<scalar> 
69504
(
0.0098357
0.0100042
0.0101756
0.0103499
0.0105273
0.0107077
0.0108913
0.011078
0.011268
0.0114613
0.0116579
0.0118579
0.0120614
0.0122684
0.012479
0.0126933
0.0129113
0.0131331
0.0133587
0.0135882
0.0138218
0.0140594
0.0143012
0.0145471
0.0147974
0.015052
0.0153111
0.0155747
0.0158428
0.0161157
0.0163934
0.0166758
0.0169633
0.0172558
0.0175534
0.0178562
0.0181643
0.0184778
0.0187969
0.0191215
0.0194518
0.019788
0.0201301
0.0204782
0.0208324
0.0211929
0.0215598
0.0219331
0.022313
0.0226997
0.0230932
0.0234936
0.0239012
0.024316
0.0247381
0.0251678
0.0256051
0.0260502
0.0265032
0.0269643
0.0274337
0.0279114
0.0283976
0.0288926
0.0293964
0.0299093
0.0304314
0.0309628
0.0315039
0.0320546
0.0326153
0.0331861
0.0337673
0.0343589
0.0349612
0.0355745
0.0361989
0.0368347
0.037482
0.0381411
0.0388123
0.0394957
0.0401916
0.0409003
0.0416219
0.0423569
0.0431053
0.0438675
0.0446438
0.0454345
0.0462398
0.04706
0.0478954
0.0487464
0.0496132
0.0504962
0.0513957
0.0523121
0.0532456
0.0541967
0.0551657
0.056153
0.0571589
0.0581839
0.0592283
0.0602926
0.0613771
0.0624824
0.0636088
0.0647568
0.0659268
0.0671194
0.068335
0.0695741
0.0708372
0.0721248
0.0734375
0.0747759
0.0761404
0.0775317
0.0789504
0.0803971
0.0818723
0.0833768
0.0849112
0.0864762
0.0880724
0.0897007
0.0913616
0.093056
0.0947847
0.0965484
0.098348
0.100184
0.102058
0.10397
0.105922
0.107914
0.109947
0.112023
0.114142
0.116305
0.118513
0.120768
0.123071
0.125422
0.127824
0.130277
0.132782
0.135342
0.137957
0.140628
0.143358
0.146147
0.148997
0.15191
0.154888
0.157931
0.161042
0.164223
0.167476
0.170801
0.174202
0.177681
0.181238
0.184878
0.188601
0.00910525
0.00926265
0.0094228
0.00958575
0.00975156
0.00992028
0.010092
0.0102666
0.0104444
0.0106253
0.0108093
0.0109966
0.0111872
0.0113811
0.0115785
0.0117793
0.0119837
0.0121916
0.0124033
0.0126186
0.0128378
0.0130608
0.0132878
0.0135188
0.0137539
0.0139931
0.0142366
0.0144844
0.0147366
0.0149932
0.0152545
0.0155203
0.0157909
0.0160663
0.0163466
0.0166319
0.0169223
0.0172178
0.0175187
0.0178249
0.0181366
0.0184538
0.0187768
0.0191055
0.0194401
0.0197807
0.0201274
0.0204804
0.0208397
0.0212055
0.0215779
0.021957
0.0223429
0.0227358
0.0231358
0.023543
0.0239577
0.0243798
0.0248096
0.0252472
0.0256928
0.0261465
0.0266084
0.0270788
0.0275577
0.0280455
0.0285421
0.0290479
0.0295629
0.0300874
0.0306215
0.0311655
0.0317194
0.0322837
0.0328583
0.0334436
0.0340397
0.0346469
0.0352653
0.0358953
0.036537
0.0371906
0.0378565
0.0385348
0.0392259
0.0399299
0.0406471
0.0413779
0.0421224
0.042881
0.0436539
0.0444415
0.045244
0.0460617
0.0468951
0.0477443
0.0486098
0.0494919
0.0503908
0.0513071
0.052241
0.0531929
0.0541632
0.0551523
0.0561606
0.0571885
0.0582365
0.0593049
0.0603942
0.0615049
0.0626375
0.0637923
0.06497
0.0661709
0.0673957
0.0686449
0.069919
0.0712185
0.072544
0.0738962
0.0752756
0.0766829
0.0781187
0.0795836
0.0810783
0.0826035
0.0841599
0.0857482
0.0873693
0.0890238
0.0907125
0.0924363
0.094196
0.0959924
0.0978265
0.0996991
0.101611
0.103564
0.105558
0.107594
0.109674
0.111798
0.113968
0.116185
0.11845
0.120764
0.123128
0.125544
0.128013
0.130537
0.133116
0.135752
0.138447
0.141203
0.14402
0.1469
0.149846
0.152859
0.15594
0.159091
0.162315
0.165613
0.168988
0.172441
0.175974
0.179591
0.183292
0.00843362
0.00858074
0.00873047
0.00888285
0.00903794
0.00919578
0.00935643
0.00951993
0.00968634
0.00985571
0.0100281
0.0102036
0.0103821
0.0105639
0.0107489
0.0109372
0.0111289
0.011324
0.0115226
0.0117248
0.0119305
0.01214
0.0123532
0.0125702
0.0127911
0.013016
0.013245
0.013478
0.0137153
0.0139568
0.0142027
0.014453
0.0147078
0.0149672
0.0152313
0.0155002
0.015774
0.0160527
0.0163365
0.0166254
0.0169196
0.0172191
0.0175241
0.0178346
0.0181508
0.0184727
0.0188005
0.0191343
0.0194742
0.0198204
0.0201728
0.0205318
0.0208973
0.0212695
0.0216486
0.0220347
0.0224279
0.0228283
0.0232362
0.0236515
0.0240746
0.0245055
0.0249444
0.0253914
0.0258468
0.0263106
0.0267831
0.0272644
0.0277547
0.0282542
0.028763
0.0292813
0.0298094
0.0303474
0.0308956
0.0314541
0.0320231
0.0326029
0.0331937
0.0337956
0.034409
0.0350341
0.0356711
0.0363202
0.0369817
0.0376559
0.038343
0.0390433
0.0397571
0.0404846
0.0412262
0.0419821
0.0427526
0.0435381
0.0443388
0.0451551
0.0459874
0.0468359
0.047701
0.0485831
0.0494825
0.0503996
0.0513349
0.0522886
0.0532612
0.0542532
0.0552649
0.0562967
0.0573492
0.0584228
0.0595179
0.060635
0.0617747
0.0629374
0.0641237
0.0653341
0.0665691
0.0678293
0.0691154
0.0704278
0.0717672
0.0731342
0.0745294
0.0759536
0.0774074
0.0788915
0.0804067
0.0819535
0.0835329
0.0851456
0.0867923
0.088474
0.0901914
0.0919455
0.093737
0.095567
0.0974364
0.0993462
0.101297
0.103291
0.105328
0.107409
0.109536
0.11171
0.113932
0.116204
0.118525
0.120899
0.123326
0.125807
0.128344
0.130938
0.133592
0.136306
0.139082
0.141922
0.144827
0.147799
0.150841
0.153953
0.157138
0.160398
0.163735
0.167151
0.170648
0.174229
0.177895
0.00781581
0.0079534
0.00809346
0.00823603
0.00838117
0.00852892
0.00867932
0.00883243
0.0089883
0.00914698
0.00930852
0.00947298
0.00964041
0.00981086
0.00998439
0.0101611
0.0103409
0.0105241
0.0107105
0.0109003
0.0110936
0.0112904
0.0114907
0.0116948
0.0119025
0.012114
0.0123293
0.0125486
0.0127719
0.0129993
0.0132308
0.0134666
0.0137066
0.0139511
0.0142001
0.0144536
0.0147118
0.0149747
0.0152425
0.0155152
0.015793
0.0160758
0.0163639
0.0166573
0.0169562
0.0172606
0.0175706
0.0178864
0.018208
0.0185356
0.0188693
0.0192093
0.0195556
0.0199083
0.0202677
0.0206337
0.0210066
0.0213866
0.0217736
0.0221679
0.0225697
0.022979
0.023396
0.0238209
0.0242539
0.024695
0.0251445
0.0256026
0.0260693
0.0265449
0.0270296
0.0275236
0.028027
0.02854
0.0290628
0.0295957
0.0301388
0.0306924
0.0312566
0.0318317
0.032418
0.0330156
0.0336247
0.0342458
0.0348789
0.0355243
0.0361823
0.0368532
0.0375373
0.0382347
0.0389459
0.0396711
0.0404105
0.0411646
0.0419336
0.0427179
0.0435177
0.0443335
0.0451655
0.0460142
0.0468799
0.0477629
0.0486637
0.0495827
0.0505202
0.0514767
0.0524525
0.0534482
0.0544642
0.0555009
0.0565589
0.0576385
0.0587403
0.0598649
0.0610126
0.0621841
0.0633799
0.0646006
0.0658468
0.067119
0.0684179
0.0697441
0.0710982
0.0724809
0.0738929
0.0753349
0.0768077
0.0783118
0.0798482
0.0814176
0.0830208
0.0846586
0.086332
0.0880416
0.0897885
0.0915737
0.0933979
0.0952623
0.0971678
0.0991154
0.101106
0.103142
0.105222
0.10735
0.109525
0.111749
0.114024
0.11635
0.118729
0.121163
0.123653
0.1262
0.128805
0.131472
0.1342
0.136992
0.139849
0.142774
0.145768
0.148833
0.15197
0.155183
0.158472
0.161841
0.165291
0.168825
0.172445
0.00724727
0.00737602
0.0075071
0.00764057
0.00777646
0.00791483
0.00805572
0.00819918
0.00834525
0.00849399
0.00864544
0.00879966
0.00895671
0.00911662
0.00927947
0.00944529
0.00961416
0.00978613
0.00996126
0.0101396
0.0103212
0.0105062
0.0106946
0.0108864
0.0110818
0.0112808
0.0114835
0.0116899
0.0119001
0.0121142
0.0123323
0.0125545
0.0127808
0.0130112
0.013246
0.0134852
0.0137287
0.0139769
0.0142297
0.0144872
0.0147495
0.0150167
0.0152889
0.0155663
0.0158488
0.0161367
0.0164299
0.0167287
0.0170332
0.0173434
0.0176594
0.0179814
0.0183095
0.0186439
0.0189846
0.0193317
0.0196855
0.020046
0.0204134
0.0207878
0.0211693
0.0215582
0.0219545
0.0223584
0.02277
0.0231896
0.0236173
0.0240532
0.0244976
0.0249505
0.0254122
0.0258828
0.0263626
0.0268518
0.0273504
0.0278588
0.0283771
0.0289056
0.0294444
0.0299938
0.030554
0.0311252
0.0317076
0.0323016
0.0329074
0.0335251
0.0341551
0.0347976
0.035453
0.0361214
0.0368031
0.0374985
0.0382079
0.0389315
0.0396697
0.0404228
0.0411911
0.041975
0.0427748
0.0435908
0.0444235
0.0452732
0.0461402
0.0470251
0.0479281
0.0488497
0.0497903
0.0507503
0.0517303
0.0527306
0.0537517
0.0547942
0.0558584
0.0569449
0.0580543
0.0591871
0.0603437
0.0615249
0.0627311
0.0639629
0.065221
0.0665061
0.0678186
0.0691594
0.0705291
0.0719283
0.0733579
0.0748185
0.076311
0.077836
0.0793945
0.0809872
0.082615
0.0842787
0.0859793
0.0877178
0.0894949
0.0913118
0.0931695
0.0950689
0.0970112
0.0989975
0.101029
0.103107
0.105232
0.107406
0.109629
0.111905
0.114233
0.116615
0.119052
0.121547
0.1241
0.126713
0.129388
0.132126
0.13493
0.1378
0.14074
0.14375
0.146832
0.14999
0.153224
0.156537
0.159932
0.16341
0.166973
0.00672385
0.00684438
0.00696713
0.00709214
0.00721944
0.0073491
0.00748114
0.00761561
0.00775257
0.00789206
0.00803413
0.00817883
0.0083262
0.00847631
0.00862919
0.00878492
0.00894354
0.0091051
0.00926967
0.0094373
0.00960805
0.00978199
0.00995917
0.0101397
0.0103235
0.0105108
0.0107016
0.010896
0.0110941
0.0112958
0.0115013
0.0117107
0.0119241
0.0121415
0.0123629
0.0125886
0.0128185
0.0130527
0.0132914
0.0135346
0.0137824
0.014035
0.0142923
0.0145545
0.0148217
0.015094
0.0153715
0.0156543
0.0159426
0.0162363
0.0165357
0.0168408
0.0171518
0.0174687
0.0177918
0.0181211
0.0184567
0.0187988
0.0191476
0.0195031
0.0198655
0.020235
0.0206116
0.0209956
0.021387
0.0217861
0.022193
0.0226079
0.0230309
0.0234622
0.023902
0.0243505
0.0248078
0.0252741
0.0257497
0.0262347
0.0267293
0.0272337
0.0277481
0.0282729
0.028808
0.0293539
0.0299108
0.0304788
0.0310582
0.0316492
0.0322522
0.0328674
0.033495
0.0341353
0.0347887
0.0354553
0.0361355
0.0368296
0.037538
0.0382608
0.0389984
0.0397513
0.0405197
0.0413039
0.0421044
0.0429214
0.0437555
0.0446069
0.0454761
0.0463635
0.0472695
0.0481945
0.049139
0.0501034
0.0510882
0.0520939
0.0531209
0.0541699
0.0552412
0.0563354
0.0574531
0.0585948
0.0597612
0.0609527
0.06217
0.0634138
0.0646847
0.0659833
0.0673103
0.0686664
0.0700524
0.0714689
0.0729168
0.0743967
0.0759096
0.0774563
0.0790375
0.0806542
0.0823073
0.0839977
0.0857263
0.0874942
0.0893023
0.0911516
0.0930434
0.0949786
0.0969583
0.0989839
0.101056
0.103177
0.105347
0.107568
0.109841
0.112168
0.11455
0.116988
0.119484
0.12204
0.124657
0.127337
0.130082
0.132893
0.135772
0.138722
0.141743
0.144839
0.148011
0.151262
0.154593
0.158007
0.161507
0.00624175
0.00635465
0.00646965
0.00658679
0.00670612
0.00682766
0.00695147
0.0070776
0.00720608
0.00733696
0.00747028
0.00760611
0.00774448
0.00788544
0.00802905
0.00817535
0.00832441
0.00847627
0.00863099
0.00878862
0.00894923
0.00911286
0.00927959
0.00944947
0.00962257
0.00979894
0.00997866
0.0101618
0.0103484
0.0105385
0.0107323
0.0109298
0.011131
0.0113361
0.0115451
0.011758
0.0119751
0.0121963
0.0124218
0.0126516
0.0128858
0.0131245
0.0133678
0.0136158
0.0138686
0.0141262
0.0143889
0.0146566
0.0149296
0.0152078
0.0154914
0.0157806
0.0160754
0.0163759
0.0166823
0.0169947
0.0173132
0.0176379
0.0179691
0.0183067
0.018651
0.019002
0.01936
0.019725
0.0200973
0.0204769
0.0208641
0.021259
0.0216617
0.0220724
0.0224913
0.0229186
0.0233545
0.023799
0.0242525
0.0247151
0.025187
0.0256685
0.0261596
0.0266607
0.0271719
0.0276935
0.0282257
0.0287687
0.0293228
0.0298882
0.0304652
0.031054
0.0316549
0.0322682
0.0328941
0.0335329
0.0341849
0.0348504
0.0355298
0.0362233
0.0369312
0.0376539
0.0383917
0.039145
0.0399141
0.0406994
0.0415013
0.0423201
0.0431562
0.0440101
0.0448821
0.0457728
0.0466824
0.0476116
0.0485606
0.0495301
0.0505205
0.0515322
0.0525659
0.053622
0.0547011
0.0558037
0.0569304
0.0580819
0.0592586
0.0604612
0.0616904
0.0629468
0.064231
0.0655439
0.066886
0.0682582
0.0696611
0.0710956
0.0725625
0.0740625
0.0755965
0.0771654
0.0787701
0.0804115
0.0820905
0.0838082
0.0855654
0.0873634
0.089203
0.0910855
0.0930119
0.0949834
0.0970012
0.0990666
0.101181
0.103345
0.105561
0.10783
0.110153
0.112531
0.114967
0.117462
0.120018
0.122635
0.125317
0.128064
0.130879
0.133763
0.136719
0.139748
0.142852
0.146035
0.149297
0.152641
0.156069
0.0057975
0.00590331
0.00601111
0.00612093
0.00623283
0.00634683
0.00646298
0.00658133
0.00670191
0.00682477
0.00694996
0.00707752
0.00720749
0.00733993
0.00747489
0.00761241
0.00775254
0.00789534
0.00804086
0.00818916
0.00834028
0.0084943
0.00865125
0.00881122
0.00897424
0.00914039
0.00930973
0.00948232
0.00965823
0.00983752
0.0100203
0.0102065
0.0103964
0.0105899
0.0107872
0.0109883
0.0111933
0.0114023
0.0116153
0.0118325
0.0120539
0.0122796
0.0125097
0.0127443
0.0129835
0.0132274
0.0134761
0.0137296
0.0139881
0.0142517
0.0145205
0.0147946
0.0150741
0.0153591
0.0156498
0.0159462
0.0162485
0.0165567
0.0168712
0.0171918
0.0175189
0.0178525
0.0181928
0.0185399
0.0188939
0.019255
0.0196234
0.0199993
0.0203826
0.0207738
0.0211728
0.0215799
0.0219953
0.0224191
0.0228515
0.0232927
0.0237429
0.0242024
0.0246712
0.0251496
0.0256379
0.0261362
0.0266447
0.0271638
0.0276936
0.0282343
0.0287863
0.0293497
0.0299249
0.030512
0.0311114
0.0317234
0.0323481
0.032986
0.0336373
0.0343024
0.0349815
0.0356749
0.0363831
0.0371063
0.0378449
0.0385993
0.0393698
0.0401567
0.0409606
0.0417818
0.0426207
0.0434776
0.0443532
0.0452477
0.0461617
0.0470956
0.0480499
0.0490251
0.0500216
0.0510401
0.0520811
0.053145
0.0542325
0.0553442
0.0564806
0.0576423
0.0588301
0.0600444
0.0612861
0.0625557
0.0638541
0.0651818
0.0665397
0.0679286
0.0693491
0.0708022
0.0722886
0.0738093
0.075365
0.0769568
0.0785856
0.0802522
0.0819578
0.0837033
0.0854898
0.0873184
0.0891902
0.0911063
0.0930679
0.0950764
0.0971328
0.0992386
0.101395
0.103604
0.105865
0.108182
0.110556
0.112987
0.115478
0.11803
0.120645
0.123325
0.126072
0.128887
0.131772
0.13473
0.137763
0.140872
0.144059
0.147328
0.150681
0.00538794
0.00548715
0.00558824
0.00569126
0.00579625
0.00590323
0.00601225
0.00612335
0.00623658
0.00635197
0.00646956
0.00658941
0.00671156
0.00683605
0.00696293
0.00709225
0.00722405
0.00735839
0.00749532
0.0076349
0.00777716
0.00792218
0.00807
0.00822068
0.00837428
0.00853086
0.00869048
0.0088532
0.00901909
0.00918821
0.00936062
0.0095364
0.00971561
0.00989833
0.0100846
0.0102746
0.0104682
0.0106657
0.0108671
0.0110724
0.0112817
0.0114952
0.0117129
0.0119349
0.0121613
0.0123922
0.0126277
0.0128678
0.0131127
0.0133625
0.0136173
0.0138771
0.0141422
0.0144125
0.0146883
0.0149696
0.0152565
0.0155492
0.0158478
0.0161524
0.0164632
0.0167802
0.0171037
0.0174337
0.0177704
0.018114
0.0184645
0.0188222
0.0191872
0.0195597
0.0199398
0.0203277
0.0207235
0.0211275
0.0215398
0.0219606
0.0223901
0.0228284
0.0232759
0.0237327
0.0241989
0.0246749
0.0251608
0.0256568
0.0261632
0.0266803
0.0272082
0.0277472
0.0282975
0.0288595
0.0294334
0.0300194
0.0306179
0.031229
0.0318533
0.0324908
0.033142
0.0338071
0.0344865
0.0351805
0.0358895
0.0366138
0.0373538
0.0381098
0.0388822
0.0396715
0.0404779
0.0413021
0.0421442
0.0430049
0.0438845
0.0447836
0.0457024
0.0466417
0.0476018
0.0485833
0.0495867
0.0506125
0.0516613
0.0527337
0.0538302
0.0549515
0.0560982
0.0572708
0.0584702
0.0596969
0.0609516
0.0622351
0.0635481
0.0648913
0.0662656
0.0676717
0.0691104
0.0705826
0.0720892
0.0736311
0.0752092
0.0768244
0.0784777
0.0801702
0.0819029
0.0836768
0.0854931
0.0873529
0.0892573
0.0912077
0.0932051
0.095251
0.0973466
0.0994933
0.101692
0.103946
0.106254
0.10862
0.111044
0.113528
0.116075
0.118685
0.12136
0.124103
0.126915
0.129798
0.132755
0.135787
0.138897
0.142086
0.145357
0.00501017
0.00510324
0.0051981
0.00529478
0.00539333
0.00549377
0.00559614
0.0057005
0.00580686
0.00591528
0.0060258
0.00613846
0.0062533
0.00637037
0.00648971
0.00661137
0.0067354
0.00686183
0.00699074
0.00712215
0.00725613
0.00739273
0.007532
0.007674
0.00781878
0.0079664
0.00811692
0.00827039
0.00842689
0.00858646
0.00874918
0.00891512
0.00908433
0.00925689
0.00943286
0.00961233
0.00979535
0.00998201
0.0101724
0.0103665
0.0105646
0.0107665
0.0109726
0.0111827
0.011397
0.0116157
0.0118387
0.0120662
0.0122983
0.012535
0.0127765
0.0130229
0.0132743
0.0135308
0.0137925
0.0140594
0.0143318
0.0146098
0.0148934
0.0151828
0.0154781
0.0157794
0.0160869
0.0164008
0.016721
0.0170479
0.0173814
0.0177219
0.0180694
0.0184241
0.0187861
0.0191556
0.0195329
0.0199179
0.020311
0.0207123
0.021122
0.0215402
0.0219673
0.0224033
0.0228484
0.023303
0.0237671
0.0242411
0.0247251
0.0252194
0.0257241
0.0262396
0.0267661
0.0273039
0.0278532
0.0284142
0.0289873
0.0295727
0.0301707
0.0307817
0.0314058
0.0320435
0.0326951
0.0333608
0.034041
0.0347362
0.0354465
0.0361724
0.0369142
0.0376724
0.0384474
0.0392394
0.0400491
0.0408767
0.0417227
0.0425876
0.0434718
0.0443759
0.0453002
0.0462454
0.0472119
0.0482002
0.0492109
0.0502446
0.0513019
0.0523832
0.0534893
0.0546208
0.0557782
0.0569624
0.0581739
0.0594135
0.0606818
0.0619797
0.0633079
0.0646671
0.0660583
0.0674821
0.0689396
0.0704315
0.0719588
0.0735224
0.0751233
0.0767625
0.078441
0.0801598
0.0819201
0.083723
0.0855696
0.0874611
0.0893987
0.0913837
0.0934175
0.0955013
0.0976366
0.0998247
0.102067
0.104365
0.106721
0.109136
0.111612
0.11415
0.116752
0.11942
0.122156
0.124962
0.12784
0.130793
0.133821
0.136927
0.140115
0.00466156
0.00474891
0.00483796
0.00492874
0.00502128
0.00511563
0.00521181
0.00530987
0.00540984
0.00551176
0.00561567
0.00572162
0.00582964
0.00593978
0.00605208
0.00616658
0.00628334
0.00640239
0.00652378
0.00664757
0.0067738
0.00690252
0.00703379
0.00716765
0.00730417
0.00744339
0.00758537
0.00773018
0.00787787
0.00802849
0.00818212
0.00833881
0.00849864
0.00866165
0.00882793
0.00899755
0.00917056
0.00934705
0.00952709
0.00971075
0.00989811
0.0100892
0.0102842
0.0104832
0.0106862
0.0108932
0.0111045
0.0113201
0.0115401
0.0117645
0.0119935
0.0122272
0.0124657
0.012709
0.0129574
0.0132108
0.0134694
0.0137334
0.0140028
0.0142777
0.0145584
0.0148448
0.0151372
0.0154356
0.0157402
0.0160512
0.0163686
0.0166927
0.0170235
0.0173613
0.0177061
0.0180582
0.0184176
0.0187846
0.0191594
0.019542
0.0199328
0.0203318
0.0207393
0.0211554
0.0215804
0.0220145
0.0224578
0.0229106
0.023373
0.0238454
0.024328
0.0248209
0.0253245
0.0258389
0.0263645
0.0269015
0.0274501
0.0280106
0.0285834
0.0291686
0.0297667
0.0303779
0.0310025
0.0316408
0.0322932
0.03296
0.0336416
0.0343383
0.0350504
0.0357784
0.0365226
0.0372835
0.0380614
0.0388568
0.0396701
0.0405017
0.0413521
0.0422217
0.0431111
0.0440206
0.044951
0.0459025
0.0468759
0.0478715
0.0488901
0.0499322
0.0509983
0.0520892
0.0532053
0.0543475
0.0555163
0.0567124
0.0579366
0.0591895
0.060472
0.0617847
0.0631286
0.0645044
0.0659129
0.067355
0.0688317
0.0703438
0.0718923
0.0734782
0.0751024
0.0767661
0.0784702
0.0802159
0.0820043
0.0838366
0.0857139
0.0876376
0.089609
0.0916292
0.0936998
0.095822
0.0979974
0.100227
0.102514
0.104858
0.107261
0.109726
0.112253
0.114845
0.117504
0.120231
0.123028
0.125898
0.128843
0.131864
0.134965
0.00433969
0.00442172
0.00450535
0.00459063
0.00467758
0.00476624
0.00485664
0.00494883
0.00504283
0.00513868
0.00523643
0.00533611
0.00543776
0.00554142
0.00564713
0.00575495
0.0058649
0.00597704
0.00609141
0.00620806
0.00632703
0.00644838
0.00657215
0.00669839
0.00682717
0.00695852
0.0070925
0.00722918
0.0073686
0.00751082
0.00765591
0.00780393
0.00795493
0.00810899
0.00826615
0.00842651
0.00859011
0.00875703
0.00892734
0.00910112
0.00927843
0.00945936
0.00964398
0.00983238
0.0100246
0.0102208
0.010421
0.0106253
0.0108339
0.0110467
0.0112639
0.0114855
0.0117118
0.0119427
0.0121784
0.0124191
0.0126647
0.0129154
0.0131713
0.0134326
0.0136993
0.0139716
0.0142495
0.0145334
0.0148231
0.015119
0.0154211
0.0157295
0.0160445
0.0163661
0.0166946
0.01703
0.0173725
0.0177223
0.0180795
0.0184444
0.0188171
0.0191977
0.0195865
0.0199836
0.0203893
0.0208037
0.021227
0.0216595
0.0221014
0.0225528
0.023014
0.0234852
0.0239667
0.0244588
0.0249615
0.0254753
0.0260003
0.0265369
0.0270853
0.0276458
0.0282187
0.0288042
0.0294028
0.0300146
0.0306401
0.0312795
0.0319332
0.0326015
0.0332848
0.0339835
0.0346979
0.0354285
0.0361756
0.0369396
0.0377209
0.0385201
0.0393374
0.0401735
0.0410286
0.0419035
0.0427984
0.043714
0.0446507
0.0456092
0.0465899
0.0475933
0.0486202
0.0496712
0.0507467
0.0518475
0.0529742
0.0541275
0.055308
0.0565166
0.0577539
0.0590207
0.0603177
0.0616459
0.0630059
0.0643986
0.065825
0.0672859
0.0687823
0.0703151
0.0718852
0.0734938
0.0751418
0.0768304
0.0785606
0.0803336
0.0821506
0.0840128
0.0859214
0.0878778
0.0898833
0.0919392
0.094047
0.0962082
0.0984242
0.100697
0.103027
0.105417
0.107869
0.110384
0.112963
0.11561
0.118325
0.121112
0.123971
0.126905
0.129917
0.00404236
0.00411942
0.00419801
0.00427815
0.00435988
0.00444324
0.00452825
0.00461495
0.00470338
0.00479356
0.00488555
0.00497937
0.00507507
0.00517267
0.00527224
0.00537379
0.00547739
0.00558306
0.00569085
0.00580082
0.00591299
0.00602743
0.00614417
0.00626328
0.00638479
0.00650876
0.00663524
0.00676428
0.00689594
0.00703028
0.00716735
0.00730721
0.00744993
0.00759555
0.00774415
0.00789579
0.00805054
0.00820845
0.00836961
0.00853408
0.00870193
0.00887323
0.00904807
0.00922652
0.00940865
0.00959455
0.00978431
0.00997799
0.0101757
0.0103775
0.0105835
0.0107939
0.0110086
0.0112277
0.0114515
0.01168
0.0119132
0.0121514
0.0123945
0.0126428
0.0128963
0.0131552
0.0134195
0.0136894
0.0139651
0.0142466
0.0145341
0.0148277
0.0151276
0.0154338
0.0157467
0.0160662
0.0163925
0.0167259
0.0170665
0.0174143
0.0177697
0.0181328
0.0185037
0.0188827
0.0192698
0.0196654
0.0200697
0.0204827
0.0209047
0.021336
0.0217768
0.0222272
0.0226875
0.023158
0.0236388
0.0241303
0.0246326
0.0251461
0.0256711
0.0262077
0.0267562
0.027317
0.0278904
0.0284767
0.0290761
0.029689
0.0303157
0.0309566
0.031612
0.0322822
0.0329677
0.0336688
0.034386
0.0351195
0.0358698
0.0366373
0.0374225
0.0382259
0.0390477
0.0398886
0.0407491
0.0416295
0.0425305
0.0434525
0.0443961
0.0453618
0.0463502
0.047362
0.0483976
0.0494578
0.0505431
0.0516543
0.052792
0.0539569
0.0551497
0.0563711
0.057622
0.058903
0.0602151
0.061559
0.0629356
0.0643458
0.0657905
0.0672706
0.0687871
0.070341
0.0719333
0.073565
0.0752373
0.0769512
0.078708
0.0805088
0.0823548
0.0842473
0.0861877
0.0881772
0.0902173
0.0923093
0.0944549
0.0966554
0.0989126
0.101228
0.103603
0.10604
0.10854
0.111106
0.113738
0.11644
0.119213
0.122059
0.124981
0.00376755
0.00383998
0.00391386
0.00398921
0.00406607
0.00414448
0.00422445
0.00430603
0.00438925
0.00447414
0.00456074
0.00464909
0.00473922
0.00483116
0.00492496
0.00502066
0.0051183
0.00521792
0.00531956
0.00542325
0.00552906
0.00563702
0.00574718
0.00585959
0.00597428
0.00609133
0.00621076
0.00633264
0.00645702
0.00658395
0.00671348
0.00684568
0.0069806
0.0071183
0.00725884
0.00740228
0.00754869
0.00769813
0.00785066
0.00800635
0.00816528
0.00832752
0.00849313
0.00866219
0.00883478
0.00901097
0.00919085
0.00937449
0.00956199
0.00975342
0.00994887
0.0101484
0.0103522
0.0105603
0.0107727
0.0109897
0.0112112
0.0114375
0.0116685
0.0119045
0.0121455
0.0123916
0.0126429
0.0128997
0.0131619
0.0134298
0.0137034
0.0139828
0.0142683
0.01456
0.0148579
0.0151623
0.0154733
0.015791
0.0161156
0.0164473
0.0167861
0.0171324
0.0174862
0.0178478
0.0182173
0.0185949
0.0189808
0.0193752
0.0197783
0.0201903
0.0206114
0.0210418
0.0214818
0.0219315
0.0223913
0.0228613
0.0233419
0.0238332
0.0243355
0.024849
0.0253742
0.0259111
0.0264602
0.0270218
0.027596
0.0281833
0.0287839
0.0293983
0.0300266
0.0306694
0.0313268
0.0319994
0.0326874
0.0333914
0.0341115
0.0348484
0.0356024
0.0363738
0.0371633
0.0379712
0.038798
0.0396441
0.0405102
0.0413966
0.042304
0.0432328
0.0441836
0.0451571
0.0461537
0.0471741
0.0482189
0.0492887
0.0503843
0.0515063
0.0526553
0.0538322
0.0550376
0.0562723
0.0575372
0.0588329
0.0601604
0.0615206
0.0629142
0.0643422
0.0658056
0.0673053
0.0688424
0.0704178
0.0720326
0.0736879
0.0753849
0.0771246
0.0789084
0.0807374
0.0826129
0.0845362
0.0865087
0.0885318
0.090607
0.0927357
0.0949194
0.0971598
0.0994585
0.101817
0.104238
0.106722
0.109271
0.111888
0.114574
0.117331
0.120162
0.00351342
0.00358153
0.00365101
0.00372189
0.00379421
0.00386799
0.00394326
0.00402005
0.0040984
0.00417834
0.00425991
0.00434313
0.00442805
0.00451469
0.0046031
0.00469332
0.00478538
0.00487932
0.00497519
0.00507302
0.00517286
0.00527474
0.00537872
0.00548484
0.00559315
0.00570369
0.00581651
0.00593166
0.00604919
0.00616915
0.0062916
0.0064166
0.00654419
0.00667443
0.00680738
0.0069431
0.00708166
0.00722311
0.00736751
0.00751494
0.00766546
0.00781914
0.00797604
0.00813625
0.00829982
0.00846685
0.0086374
0.00881155
0.00898939
0.00917099
0.00935645
0.00954584
0.00973926
0.0099368
0.0101385
0.0103446
0.0105551
0.01077
0.0109896
0.0112138
0.0114429
0.0116769
0.011916
0.0121602
0.0124097
0.0126645
0.0129249
0.013191
0.0134628
0.0137405
0.0140243
0.0143142
0.0146105
0.0149133
0.0152227
0.0155389
0.015862
0.0161922
0.0165297
0.0168747
0.0172273
0.0175876
0.017956
0.0183325
0.0187175
0.0191109
0.0195132
0.0199245
0.0203449
0.0207748
0.0212143
0.0216637
0.0221233
0.0225932
0.0230737
0.0235651
0.0240677
0.0245817
0.0251074
0.0256451
0.026195
0.0267576
0.027333
0.0279217
0.0285239
0.02914
0.0297703
0.0304153
0.0310752
0.0317504
0.0324414
0.0331484
0.033872
0.0346126
0.0353705
0.0361463
0.0369404
0.0377532
0.0385852
0.039437
0.0403091
0.0412019
0.042116
0.043052
0.0440105
0.044992
0.0459971
0.0470265
0.0480809
0.0491608
0.0502669
0.0514001
0.0525609
0.0537501
0.0549685
0.056217
0.0574962
0.058807
0.0601504
0.0615271
0.0629381
0.0643844
0.0658669
0.0673867
0.0689446
0.070542
0.0721797
0.073859
0.0755811
0.0773471
0.0791582
0.0810159
0.0829213
0.0848759
0.086881
0.0889382
0.0910489
0.0932146
0.095437
0.0977178
0.100059
0.102461
0.104927
0.107459
0.110058
0.112727
0.115467
0.00327829
0.00334236
0.00340774
0.00347445
0.00354251
0.00361197
0.00368284
0.00375516
0.00382895
0.00390426
0.00398112
0.00405954
0.00413958
0.00422127
0.00430463
0.00438971
0.00447654
0.00456517
0.00465562
0.00474795
0.00484218
0.00493837
0.00503655
0.00513677
0.00523907
0.0053435
0.00545011
0.00555894
0.00567003
0.00578345
0.00589924
0.00601745
0.00613814
0.00626136
0.00638717
0.00651563
0.00664678
0.0067807
0.00691745
0.00705708
0.00719967
0.00734527
0.00749396
0.0076458
0.00780087
0.00795923
0.00812097
0.00828615
0.00845486
0.00862717
0.00880317
0.00898294
0.00916656
0.00935412
0.00954572
0.00974144
0.00994138
0.0101456
0.0103543
0.0105675
0.0107853
0.0110078
0.0112351
0.0114674
0.0117048
0.0119473
0.0121951
0.0124484
0.0127072
0.0129716
0.0132419
0.0135181
0.0138004
0.0140889
0.0143838
0.0146852
0.0149933
0.0153082
0.0156301
0.0159592
0.0162956
0.0166395
0.0169911
0.0173505
0.017718
0.0180938
0.018478
0.0188708
0.0192726
0.0196834
0.0201035
0.0205331
0.0209725
0.0214218
0.0218814
0.0223515
0.0228324
0.0233242
0.0238273
0.024342
0.0248686
0.0254073
0.0259584
0.0265223
0.0270992
0.0276896
0.0282937
0.0289119
0.0295446
0.030192
0.0308546
0.0315329
0.032227
0.0329376
0.0336649
0.0344095
0.0351718
0.0359522
0.0367512
0.0375693
0.0384069
0.0392647
0.0401431
0.0410426
0.0419638
0.0429074
0.0438738
0.0448637
0.0458778
0.0469165
0.0479808
0.0490711
0.0501882
0.0513328
0.0525058
0.0537077
0.0549395
0.056202
0.0574959
0.0588222
0.0601818
0.0615755
0.0630043
0.0644692
0.0659712
0.0675114
0.0690907
0.0707104
0.0723715
0.0740752
0.0758228
0.0776154
0.0794544
0.0813411
0.0832769
0.0852631
0.0873013
0.089393
0.0915397
0.093743
0.0960046
0.0983262
0.10071
0.103157
0.105669
0.108249
0.110898
0.00306062
0.00312092
0.00318246
0.00324526
0.00330936
0.00337477
0.00344152
0.00350966
0.0035792
0.00365017
0.00372261
0.00379655
0.00387202
0.00394905
0.00402768
0.00410795
0.00418988
0.00427352
0.0043589
0.00444606
0.00453504
0.00462588
0.00471861
0.00481329
0.00490996
0.00500865
0.00510941
0.00521229
0.00531733
0.00542459
0.00553411
0.00564594
0.00576014
0.00587675
0.00599583
0.00611743
0.00624162
0.00636844
0.00649796
0.00663024
0.00676534
0.00690333
0.00704426
0.0071882
0.00733523
0.00748541
0.00763882
0.00779552
0.00795559
0.00811911
0.00828616
0.00845681
0.00863116
0.00880928
0.00899126
0.00917718
0.00936715
0.00956125
0.00975957
0.00996223
0.0101693
0.0103809
0.0105971
0.0108181
0.0110439
0.0112747
0.0115106
0.0117517
0.0119981
0.0122499
0.0125073
0.0127704
0.0130394
0.0133143
0.0135953
0.0138826
0.0141763
0.0144766
0.0147836
0.0150975
0.0154184
0.0157466
0.0160821
0.0164252
0.0167761
0.0171348
0.0175017
0.017877
0.0182607
0.0186532
0.0190547
0.0194653
0.0198853
0.0203149
0.0207544
0.021204
0.0216639
0.0221344
0.0226159
0.0231084
0.0236124
0.0241281
0.0246558
0.0251957
0.0257483
0.0263138
0.0268926
0.027485
0.0280913
0.0287119
0.0293471
0.0299974
0.030663
0.0313445
0.0320422
0.0327566
0.033488
0.0342369
0.0350038
0.0357891
0.0365934
0.037417
0.0382606
0.0391247
0.0400097
0.0409162
0.0418449
0.0427963
0.0437711
0.0447697
0.045793
0.0468415
0.0479159
0.0490169
0.0501454
0.0513019
0.0524873
0.0537023
0.0549478
0.0562247
0.0575337
0.0588758
0.0602519
0.061663
0.06311
0.0645939
0.0661158
0.0676767
0.0692778
0.0709202
0.072605
0.0743336
0.076107
0.0779267
0.079794
0.0817102
0.0836767
0.0856951
0.0877669
0.0898935
0.0920767
0.094318
0.0966193
0.0989823
0.101409
0.103901
0.10646
0.002859
0.00291578
0.00297373
0.00303288
0.00309326
0.00315488
0.00321779
0.00328201
0.00334755
0.00341447
0.00348278
0.00355251
0.0036237
0.00369637
0.00377057
0.00384632
0.00392366
0.00400262
0.00408323
0.00416554
0.00424959
0.0043354
0.00442302
0.0045125
0.00460386
0.00469715
0.00479242
0.00488971
0.00498906
0.00509052
0.00519414
0.00529996
0.00540804
0.00551842
0.00563116
0.00574631
0.00586392
0.00598405
0.00610676
0.0062321
0.00636014
0.00649092
0.00662453
0.00676101
0.00690045
0.00704289
0.00718842
0.0073371
0.007489
0.0076442
0.00780278
0.0079648
0.00813036
0.00829953
0.00847239
0.00864903
0.00882954
0.00901401
0.00920253
0.00939519
0.00959209
0.00979332
0.009999
0.0102092
0.0104241
0.0106437
0.0108682
0.0110977
0.0113323
0.0115721
0.0118172
0.0120679