/*--------------------------------*- C++ -*----------------------------------*\
| =========                 |                                                 |
| \\      /  F ield         | OpenFOAM: The Open Source CFD Toolbox           |
|  \\    /   O peration     | Version:  v1806                                 |
|   \\  /    A nd           | Web:      www.OpenFOAM.com                      |
|    \\/     M anipulation  |                                                 |
\*---------------------------------------------------------------------------*/
FoamFile
{
    version     2.0;
    format      ascii;
    class       volScalarField;
    location    "0";
    object      cellDeterminant;
}
// * * * * * * * * * * * * * * * * * * * * * * * * * * * * * * * * * * * * * //

dimensions      [0 0 0 0 0 0 0];


internalField   nonuniform List<scalar> 
69504
(
0.0020496
0.00211607
0.00218461
0.00225529
0.00232818
0.00240333
0.00248081
0.00256069
0.00264304
0.00272794
0.00281544
0.00290563
0.00299859
0.00309439
0.00319311
0.00329483
0.00339964
0.00350763
0.00361888
0.00373349
0.00385154
0.00397313
0.00409835
0.00422731
0.00436011
0.00449685
0.00463763
0.00478257
0.00493177
0.00508534
0.00524341
0.00540608
0.00557348
0.00574573
0.00592296
0.00610529
0.00629285
0.00648577
0.0066842
0.00688826
0.0070981
0.00731386
0.00753569
0.00776373
0.00799814
0.00823906
0.00848666
0.0087411
0.00900254
0.00927114
0.00954707
0.00983051
0.0101216
0.0104206
0.0107276
0.0110428
0.0113664
0.0116986
0.0120396
0.0123896
0.0127487
0.0131173
0.0134954
0.0138833
0.0142812
0.0146893
0.0151079
0.0155371
0.0159772
0.0164285
0.0168911
0.0173653
0.0178513
0.0183494
0.0188598
0.0193828
0.0199186
0.0204675
0.0210298
0.0216058
0.0221957
0.0227998
0.0234184
0.0240517
0.0247002
0.0253641
0.0260436
0.0267393
0.0274512
0.0281799
0.0289256
0.0296887
0.0304695
0.0312684
0.0320859
0.0329221
0.0337777
0.0346529
0.0355481
0.0364639
0.0374006
0.0383587
0.0393386
0.0403409
0.0413659
0.0424142
0.0434863
0.0445827
0.0457039
0.0468506
0.0480232
0.0492224
0.0504487
0.0517027
0.0529851
0.0542966
0.0556376
0.057009
0.0584114
0.0598455
0.061312
0.0628116
0.064345
0.065913
0.0675163
0.0691557
0.0708319
0.0725456
0.0742976
0.0760886
0.0779194
0.0797907
0.0817031
0.0836573
0.0856538
0.0876934
0.0897765
0.0919036
0.0940749
0.096291
0.0985518
0.100858
0.103208
0.105604
0.108043
0.110526
0.113052
0.11562
0.118229
0.120876
0.123561
0.12628
0.129031
0.13181
0.134615
0.137441
0.140282
0.143135
0.145992
0.148847
0.151692
0.15452
0.15732
0.160084
0.1628
0.165457
0.112522
0.0127355
0.0131317
0.0135394
0.0139589
0.0143906
0.0148348
0.0152917
0.0157618
0.0162453
0.0167425
0.0172539
0.0177797
0.0183203
0.018876
0.0194473
0.0200345
0.0206379
0.0212579
0.021895
0.0225495
0.0232218
0.0239123
0.0246215
0.0253496
0.0260972
0.0268647
0.0276524
0.0284609
0.0292905
0.0301417
0.0310149
0.0319106
0.0328292
0.0337712
0.034737
0.035727
0.0367419
0.0377819
0.0388476
0.0399394
0.0410578
0.0422032
0.0433762
0.0445772
0.0458067
0.047065
0.0483528
0.0496704
0.0510184
0.0523971
0.0538071
0.0552488
0.0567227
0.0582291
0.0597686
0.0613416
0.0629485
0.0645897
0.0662658
0.067977
0.0697239
0.0715068
0.0733261
0.0751823
0.0770756
0.0790065
0.0809754
0.0829825
0.0850284
0.0871132
0.0892373
0.0914011
0.0936049
0.095849
0.0981335
0.100459
0.102826
0.105233
0.107683
0.110174
0.112708
0.115284
0.117902
0.120563
0.123267
0.126014
0.128804
0.131638
0.134515
0.137436
0.1404
0.143409
0.146461
0.149558
0.152699
0.155884
0.159114
0.162388
0.165707
0.16907
0.172478
0.17593
0.179428
0.18297
0.186557
0.190188
0.193865
0.197586
0.201353
0.205164
0.20902
0.21292
0.216866
0.220856
0.224891
0.22897
0.233094
0.237262
0.241474
0.245731
0.250031
0.254375
0.258762
0.263192
0.267665
0.272179
0.276736
0.281333
0.285971
0.290649
0.295365
0.300119
0.304909
0.309735
0.314595
0.319487
0.324409
0.32936
0.334336
0.339336
0.344357
0.349396
0.354448
0.35951
0.364579
0.369648
0.374713
0.379768
0.384807
0.389824
0.394809
0.399756
0.404656
0.409498
0.414273
0.418969
0.423575
0.428077
0.432461
0.436712
0.440816
0.444755
0.448511
0.452067
0.455402
0.458497
0.303297
0.0132438
0.013659
0.0140864
0.0145264
0.0149792
0.0154452
0.0159247
0.0164182
0.0169258
0.0174481
0.0179853
0.0185378
0.019106
0.0196903
0.0202911
0.0209087
0.0215436
0.0221962
0.0228669
0.023556
0.0242641
0.0249916
0.0257388
0.0265063
0.0272944
0.0281037
0.0289346
0.0297875
0.030663
0.0315614
0.0324833
0.0334291
0.0343994
0.0353945
0.0364151
0.0374615
0.0385343
0.039634
0.040761
0.0419159
0.0430992
0.0443114
0.0455529
0.0468242
0.048126
0.0494586
0.0508226
0.0522184
0.0536467
0.0551077
0.0566021
0.0581304
0.0596929
0.0612902
0.0629228
0.0645911
0.0662956
0.0680367
0.0698149
0.0716307
0.0734844
0.0753765
0.0773074
0.0792775
0.0812873
0.083337
0.0854271
0.0875579
0.0897298
0.0919432
0.0941983
0.0964955
0.0988351
0.101217
0.103643
0.106111
0.108623
0.111179
0.113778
0.116422
0.11911
0.121843
0.124621
0.127443
0.13031
0.133223
0.13618
0.139183
0.142232
0.145326
0.148465
0.15165
0.154881
0.158157
0.16148
0.164847
0.168261
0.171719
0.175224
0.178774
0.182369
0.18601
0.189696
0.193427
0.197203
0.201024
0.20489
0.2088
0.212755
0.216754
0.220798
0.224885
0.229015
0.233189
0.237406
0.241666
0.245968
0.250312
0.254698
0.259125
0.263593
0.268101
0.272649
0.277236
0.281862
0.286525
0.291225
0.29596
0.300731
0.305535
0.310372
0.31524
0.320137
0.325062
0.330013
0.334989
0.339985
0.345002
0.350034
0.35508
0.360136
0.365199
0.370264
0.375327
0.380383
0.385428
0.390455
0.395458
0.400431
0.405365
0.410254
0.415088
0.419859
0.424556
0.429169
0.433685
0.438094
0.442381
0.446533
0.450534
0.45437
0.458023
0.461477
0.464712
0.467711
0.470453
0.296705
0.0137852
0.0142207
0.0146691
0.0151308
0.0156061
0.0160954
0.0165991
0.0171174
0.0176509
0.0181998
0.0187645
0.0193455
0.0199432
0.0205579
0.0211901
0.0218402
0.0225087
0.0231959
0.0239023
0.0246284
0.0253746
0.0261414
0.0269292
0.0277385
0.0285699
0.0294237
0.0303005
0.0312007
0.0321249
0.0330736
0.0340473
0.0350464
0.0360716
0.0371232
0.038202
0.0393083
0.0404426
0.0416057
0.0427978
0.0440197
0.0452718
0.0465547
0.0478688
0.0492148
0.0505931
0.0520044
0.0534491
0.0549277
0.0564408
0.0579889
0.0595725
0.0611922
0.0628484
0.0645416
0.0662724
0.0680412
0.0698485
0.0716948
0.0735806
0.0755063
0.0774723
0.0794791
0.0815271
0.0836168
0.0857485
0.0879227
0.0901397
0.0923998
0.0947034
0.097051
0.0994427
0.101879
0.10436
0.106886
0.109457
0.112074
0.114737
0.117445
0.1202
0.123001
0.125849
0.128743
0.131684
0.134672
0.137707
0.140789
0.143918
0.147093
0.150316
0.153586
0.156903
0.160267
0.163678
0.167135
0.170639
0.17419
0.177787
0.18143
0.18512
0.188855
0.192636
0.196462
0.200333
0.204249
0.20821
0.212215
0.216264
0.220357
0.224493
0.228672
0.232893
0.237156
0.241461
0.245806
0.250192
0.254618
0.259084
0.263588
0.26813
0.272709
0.277325
0.281977
0.286664
0.291384
0.296138
0.300923
0.305738
0.310584
0.315456
0.320356
0.32528
0.330227
0.335195
0.340182
0.345186
0.350204
0.355233
0.360271
0.365314
0.37036
0.375403
0.38044
0.385467
0.390478
0.395469
0.400433
0.405366
0.410259
0.415106
0.419899
0.42463
0.42929
0.43387
0.438358
0.442745
0.447018
0.451165
0.455173
0.459028
0.462716
0.46622
0.469525
0.472614
0.475469
0.478072
0.480404
0.289092
0.014362
0.0148191
0.01529
0.0157749
0.0162742
0.0167884
0.0173177
0.0178626
0.0184235
0.0190009
0.019595
0.0202064
0.0208354
0.0214826
0.0221483
0.022833
0.0235372
0.0242613
0.0250058
0.0257712
0.026558
0.0273667
0.0281977
0.0290516
0.0299289
0.0308301
0.0317558
0.0327064
0.0336824
0.0346846
0.0357133
0.0367691
0.0378526
0.0389643
0.0401048
0.0412747
0.0424744
0.0437047
0.0449659
0.0462588
0.0475839
0.0489417
0.0503328
0.0517578
0.0532173
0.0547117
0.0562418
0.0578079
0.0594107
0.0610508
0.0627286
0.0644448
0.0661997
0.0679941
0.0698283
0.071703
0.0736185
0.0755754
0.0775742
0.0796153
0.0816992
0.0838263
0.0859971
0.0882119
0.0904713
0.0927755
0.095125
0.09752
0.099961
0.102448
0.104982
0.107563
0.11019
0.112865
0.115588
0.118359
0.121177
0.124043
0.126958
0.129921
0.132933
0.135993
0.139101
0.142258
0.145464
0.148718
0.152021
0.155372
0.158772
0.16222
0.165715
0.169259
0.17285
0.176489
0.180175
0.183908
0.187688
0.191513
0.195385
0.199303
0.203265
0.207273
0.211325
0.21542
0.219559
0.223741
0.227966
0.232232
0.236539
0.240886
0.245274
0.249701
0.254166
0.258668
0.263208
0.267784
0.272394
0.277039
0.281718
0.286428
0.291169
0.295941
0.300741
0.305569
0.310422
0.315301
0.320202
0.325125
0.330067
0.335027
0.340002
0.344991
0.349992
0.355
0.360015
0.365033
0.37005
0.375064
0.380071
0.385067
0.390047
0.395008
0.399944
0.40485
0.409721
0.41455
0.419331
0.424057
0.42872
0.433313
0.437827
0.442252
0.44658
0.450799
0.454899
0.458868
0.462694
0.466364
0.469863
0.473178
0.476294
0.479195
0.481864
0.484285
0.486441
0.488314
0.280617
0.0149768
0.0154571
0.0159519
0.0164615
0.0169865
0.0175271
0.0180839
0.0186571
0.0192473
0.019855
0.0204804
0.0211242
0.0217867
0.0224684
0.0231698
0.0238914
0.0246337
0.0253971
0.0261822
0.0269895
0.0278195
0.0286728
0.0295498
0.0304512
0.0313774
0.032329
0.0333066
0.0343108
0.035342
0.0364009
0.0374881
0.0386042
0.0397496
0.0409251
0.0421312
0.0433686
0.0446377
0.0459392
0.0472738
0.0486419
0.0500443
0.0514815
0.0529541
0.0544627
0.056008
0.0575904
0.0592106
0.0608692
0.0625668
0.0643039
0.066081
0.0678989
0.0697579
0.0716587
0.0736018
0.0755877
0.0776169
0.07969
0.0818073
0.0839694
0.0861768
0.0884299
0.090729
0.0930747
0.0954673
0.0979072
0.100395
0.10293
0.105514
0.108146
0.110828
0.113558
0.116338
0.119167
0.122046
0.124974
0.127953
0.130982
0.134061
0.13719
0.140369
0.143598
0.146878
0.150207
0.153586
0.157016
0.160494
0.164023
0.1676
0.171227
0.174902
0.178625
0.182397
0.186216
0.190082
0.193995
0.197954
0.201959
0.206009
0.210104
0.214244
0.218426
0.222651
0.226919
0.231228
0.235577
0.239966
0.244395
0.248861
0.253364
0.257904
0.262479
0.267089
0.271732
0.276407
0.281112
0.285848
0.290612
0.295403
0.300221
0.305062
0.309927
0.314813
0.319718
0.324642
0.329581
0.334535
0.339501
0.344477
0.34946
0.354449
0.35944
0.364431
0.369419
0.374401
0.379374
0.384333
0.389276
0.394198
0.399095
0.403962
0.408795
0.413588
0.418335
0.423031
0.42767
0.432244
0.436746
0.441169
0.445505
0.449744
0.453878
0.457897
0.46179
0.465547
0.469156
0.472605
0.475881
0.478972
0.481862
0.484539
0.486987
0.48919
0.491132
0.492799
0.494172
0.271428
0.0156326
0.0161375
0.0166578
0.0171938
0.0177461
0.018315
0.018901
0.0195045
0.020126
0.0207659
0.0214247
0.022103
0.0228012
0.0235197
0.0242592
0.0250201
0.0258029
0.0266083
0.0274366
0.0282885
0.0291646
0.0300653
0.0309913
0.0319432
0.0329214
0.0339267
0.0349596
0.0360206
0.0371105
0.0382298
0.0393791
0.0405591
0.0417704
0.0430136
0.0442893
0.0455982
0.0469409
0.048318
0.0497302
0.051178
0.0526623
0.0541835
0.0557423
0.0573393
0.0589752
0.0606505
0.062366
0.0641221
0.0659196
0.0677589
0.0696408
0.0715657
0.0735342
0.0755469
0.0776044
0.0797071
0.0818555
0.0840503
0.0862919
0.0885806
0.0909171
0.0933017
0.0957349
0.098217
0.100748
0.103329
0.105961
0.108642
0.111374
0.114157
0.11699
0.119875
0.122812
0.1258
0.128839
0.131931
0.135074
0.138269
0.141515
0.144814
0.148164
0.151565
0.155018
0.158522
0.162077
0.165683
0.169339
0.173045
0.1768
0.180605
0.184459
0.188361
0.19231
0.196307
0.200351
0.20444
0.208575
0.212754
0.216977
0.221243
0.225551
0.229901
0.234291
0.23872
0.243188
0.247693
0.252235
0.256812
0.261423
0.266067
0.270743
0.275449
0.280184
0.284947
0.289736
0.29455
0.299387
0.304246
0.309125
0.314022
0.318936
0.323865
0.328806
0.333757
0.338718
0.343684
0.348655
0.353627
0.358599
0.363566
0.368527
0.373479
0.378419
0.383342
0.388246
0.393128
0.397982
0.402805
0.407593
0.412341
0.417044
0.421697
0.426295
0.430831
0.435299
0.439694
0.444007
0.448232
0.45236
0.456385
0.460296
0.464085
0.467741
0.471256
0.474618
0.477817
0.48084
0.483675
0.48631
0.488731
0.490925
0.492879
0.494577
0.496005
0.497148
0.497991
0.26167
0.0163321
0.0168634
0.0174109
0.0179751
0.0185566
0.0191556
0.0197728
0.0204085
0.0210633
0.0217377
0.0224322
0.0231472
0.0238834
0.0246413
0.0254213
0.0262241
0.0270501
0.0279001
0.0287745
0.0296739
0.030599
0.0315503
0.0325284
0.0335339
0.0345675
0.0356298
0.0367214
0.037843
0.0389952
0.0401786
0.0413939
0.0426418
0.0439229
0.0452379
0.0465874
0.0479722
0.0493928
0.0508499
0.0523443
0.0538766
0.0554474
0.0570574
0.0587073
0.0603977
0.0621293
0.0639027
0.0657186
0.0675776
0.0694802
0.0714272
0.0734191
0.0754566
0.0775401
0.0796703
0.0818476
0.0840728
0.0863462
0.0886683
0.0910397
0.0934608
0.095932
0.0984537
0.101026
0.10365
0.106326
0.109054
0.111834
0.114666
0.117551
0.120489
0.12348
0.126525
0.129622
0.132773
0.135978
0.139236
0.142547
0.145911
0.149329
0.152799
0.156323
0.159898
0.163526
0.167206
0.170937
0.17472
0.178553
0.182436
0.186369
0.19035
0.19438
0.198458
0.202583
0.206753
0.210969
0.21523
0.219534
0.22388
0.228268
0.232697
0.237165
0.241671
0.246215
0.250794
0.255408
0.260056
0.264735
0.269445
0.274184
0.27895
0.283743
0.28856
0.2934
0.29826
0.30314
0.308038
0.312951
0.317878
0.322816
0.327764
0.332719
0.337679
0.342643
0.347607
0.352568
0.357526
0.362475
0.367415
0.372342
0.377253
0.382145
0.387014
0.391858
0.396671
0.401452
0.406195
0.410897
0.415552
0.420157
0.424707
0.429195
0.433618
0.43797
0.442243
0.446433
0.450531
0.454533
0.458429
0.462212
0.465875
0.469408
0.472803
0.47605
0.479139
0.482061
0.484805
0.487359
0.489712
0.491852
0.493767
0.495444
0.49687
0.498033
0.498919
0.499514
0.499805
0.251473
0.0170788
0.0176381
0.0182147
0.018809
0.0194215
0.0200527
0.0207032
0.0213733
0.0220637
0.0227748
0.0235072
0.0242615
0.0250382
0.0258379
0.0266612
0.0275086
0.0283807
0.0292782
0.0302016
0.0311516
0.0321288
0.0331339
0.0341674
0.0352301
0.0363226
0.0374455
0.0385995
0.0397854
0.0410037
0.0422552
0.0435406
0.0448605
0.0462157
0.0476068
0.0490345
0.0504996
0.0520028
0.0535446
0.055126
0.0567474
0.0584097
0.0601136
0.0618596
0.0636486
0.0654811
0.0673578
0.0692795
0.0712466
0.07326
0.0753201
0.0774276
0.0795832
0.0817873
0.0840406
0.0863436
0.0886968
0.0911007
0.0935558
0.0960627
0.0986216
0.101233
0.103897
0.106615
0.109386
0.112212
0.115091
0.118025
0.121013
0.124056
0.127154
0.130307
0.133515
0.136778
0.140095
0.143468
0.146896
0.150378
0.153915
0.157505
0.16115
0.164848
0.168599
0.172403
0.176259
0.180166
0.184125
0.188134
0.192192
0.1963
0.200455
0.204658
0.208907
0.213201
0.21754
0.221922
0.226346
0.230811
0.235316
0.23986
0.244441
0.249057
0.253708
0.258392
0.263107
0.267852
0.272625
0.277425
0.28225
0.287097
0.291966
0.296854
0.301759
0.306679
0.311613
0.316558
0.321512
0.326472
0.331437
0.336405
0.341371
0.346335
0.351294
0.356244
0.361184
0.36611
0.371019
0.375909
0.380776
0.385617
0.390429
0.395208
0.399951
0.404654
0.409312
0.413923
0.418481
0.422982
0.427422
0.431796
0.436099
0.440324
0.444468
0.448524
0.452486
0.456348
0.460103
0.463745
0.467265
0.470657
0.473912
0.477023
0.47998
0.482775
0.485399
0.487841
0.490092
0.492141
0.493978
0.495592
0.496972
0.498105
0.498981
0.499587
0.499912
0.499944
0.49967
0.240962
0.0178759
0.0184652
0.0190728
0.0196992
0.0203449
0.0210105
0.0216964
0.0224032
0.0231315
0.0238818
0.0246548
0.0254509
0.0262708
0.0271151
0.0279844
0.0288793
0.0298005
0.0307485
0.0317242
0.032728
0.0337607
0.034823
0.0359155
0.0370389
0.0381939
0.0393812
0.0406016
0.0418557
0.0431442
0.044468
0.0458276
0.0472239
0.0486575
0.0501293
0.0516399
0.05319
0.0547804
0.0564119
0.0580851
0.0598008
0.0615597
0.0633626
0.06521
0.0671028
0.0690416
0.0710271
0.0730599
0.0751408
0.0772704
0.0794493
0.0816781
0.0839574
0.0862878
0.0886698
0.091104
0.0935909
0.096131
0.0987248
0.101373
0.104075
0.106832
0.109644
0.112512
0.115436
0.118416
0.121451
0.124544
0.127693
0.130898
0.13416
0.137478
0.140854
0.144285
0.147773
0.151317
0.154917
0.158572
0.162283
0.166048
0.169867
0.173741
0.177667
0.181647
0.185678
0.18976
0.193892
0.198075
0.202305
0.206583
0.210908
0.215278
0.219693
0.22415
0.22865
0.23319
0.237768
0.242385
0.247038
0.251725
0.256445
0.261196
0.265977
0.270786
0.27562
0.280479
0.285359
0.29026
0.295178
0.300112
0.30506
0.310019
0.314988
0.319963
0.324942
0.329923
0.334904
0.339882
0.344853
0.349817
0.354769
0.359706
0.364627
0.369528
0.374405
0.379256
0.384078
0.388867
0.39362
0.398333
0.403003
0.407626
0.412198
0.416715
0.421173
0.425568
0.429895
0.434149
0.438327
0.442423
0.446432
0.450348
0.454166
0.457881
0.461486
0.464975
0.468342
0.47158
0.474682
0.477641
0.480448
0.483097
0.48558
0.487887
0.49001
0.49194
0.493668
0.495185
0.496481
0.497545
0.498368
0.49894
0.49925
0.499287
0.499042
0.498503
0.497662
0.230247
0.0187272
0.0193485
0.0199892
0.0206499
0.021331
0.0220332
0.022757
0.0235029
0.0242717
0.0250638
0.0258799
0.0267206
0.0275865
0.0284783
0.0293967
0.0303422
0.0313156
0.0323175
0.0333487
0.0344098
0.0355015
0.0366246
0.0377798
0.0389677
0.0401892
0.0414449
0.0427357
0.0440622
0.0454252
0.0468256
0.048264
0.0497411
0.0512579
0.052815
0.0544132
0.0560533
0.057736
0.0594621
0.0612323
0.0630474
0.0649082
0.0668153
0.0687696
0.0707716
0.0728222
0.074922
0.0770717
0.0792719
0.0815234
0.0838266
0.0861823
0.0885911
0.0910534
0.0935699
0.096141
0.0987672
0.101449
0.104187
0.106981
0.109832
0.11274
0.115706
0.118729
0.12181
0.124948
0.128145
0.1314
0.134714
0.138085
0.141515
0.145003
0.148548
0.152151
0.155811
0.159528
0.163302
0.167132
0.171017
0.174957
0.178952
0.183
0.187101
0.191254
0.195458
0.199712
0.204015
0.208366
0.212764
0.217207
0.221695
0.226226
0.230798
0.23541
0.240061
0.244748
0.24947
0.254226
0.259014
0.26383
0.268675
0.273545
0.278439
0.283355
0.28829
0.293242
0.298208
0.303188
0.308177
0.313174
0.318175
0.32318
0.328184
0.333185
0.33818
0.343168
0.348144
0.353105
0.35805
0.362975
0.367876
0.372751
0.377596
0.382409
0.387185
0.391922
0.396615
0.401262
0.405859
0.410401
0.414886
0.419309
0.423665
0.427952
0.432165
0.436299
0.44035
0.444314
0.448184
0.451958
0.455629
0.459192
0.462641
0.465972
0.469179
0.472255
0.475194
0.477989
0.480635
0.483124
0.48545
0.487605
0.489581
0.49137
0.492966
0.49436
0.495542
0.496506
0.497242
0.497742
0.497996
0.497996
0.497733
0.497197
0.496381
0.495275
0.49387
0.219432
0.0196367
0.0202921
0.0209682
0.0216654
0.0223843
0.0231256
0.0238897
0.0246774
0.0254893
0.0263259
0.027188
0.0280762
0.0289912
0.0299337
0.0309042
0.0319037
0.0329327
0.0339919
0.0350822
0.0362042
0.0373586
0.0385464
0.0397681
0.0410246
0.0423166
0.0436449
0.0450104
0.0464137
0.0478557
0.0493372
0.0508589
0.0524218
0.0540265
0.0556738
0.0573646
0.0590997
0.0608798
0.0627057
0.0645783
0.0664982
0.0684662
0.0704832
0.0725497
0.0746666
0.0768346
0.0790543
0.0813265
0.0836518
0.0860308
0.0884642
0.0909525
0.0934963
0.0960962
0.0987527
0.101466
0.104237
0.107066
0.109953
0.112899
0.115904
0.118968
0.122091
0.125274
0.128517
0.131819
0.135181
0.138603
0.142085
0.145626
0.149226
0.152885
0.156603
0.160379
0.164214
0.168105
0.172053
0.176058
0.180117
0.184232
0.1884
0.192621
0.196894
0.201217
0.205591
0.210012
0.214481
0.218995
0.223554
0.228156
0.232798
0.23748
0.242201
0.246957
0.251747
0.256569
0.261422
0.266303
0.27121
0.27614
0.281092
0.286063
0.291051
0.296054
0.301068
0.306091
0.31112
0.316154
0.321188
0.326221
0.331249
0.33627
0.34128
0.346277
0.351257
0.356218
0.361155
0.366067
0.370949
0.375799
0.380613
0.385387
0.390118
0.394803
0.399438
0.40402
0.408544
0.413007
0.417405
0.421734
0.42599
0.43017
0.434269
0.438283
0.442207
0.446038
0.44977
0.453399
0.456921
0.46033
0.463622
0.466792
0.469834
0.472743
0.475513
0.478139
0.480615
0.482936
0.485094
0.487084
0.488899
0.490533
0.491978
0.493229
0.494277
0.495116
0.495738
0.496137
0.496303
0.496231
0.495912
0.495339
0.494504
0.4934
0.492019
0.490355
0.4884
0.208605
0.0206085
0.0213004
0.0220142
0.0227504
0.0235096
0.0242926
0.0250998
0.025932
0.0267898
0.027674
0.0285851
0.0295239
0.0304911
0.0314875
0.0325137
0.0335705
0.0346586
0.0357788
0.0369319
0.0381186
0.0393398
0.0405962
0.0418886
0.0432178
0.0445847
0.04599
0.0474346
0.0489193
0.050445
0.0520124
0.0536224
0.0552758
0.0569734
0.0587161
0.0605047
0.06234
0.0642229
0.066154
0.0681343
0.0701645
0.0722454
0.0743777
0.0765622
0.0787996
0.0810906
0.083436
0.0858364
0.0882924
0.0908047
0.0933739
0.0960005
0.098685
0.101428
0.10423
0.107091
0.110013
0.112994
0.116036
0.119138
0.122301
0.125526
0.128812
0.132159
0.135567
0.139037
0.142567
0.146159
0.149811
0.153524
0.157298
0.16113
0.165022
0.168973
0.172982
0.177048
0.18117
0.185348
0.189581
0.193868
0.198207
0.202598
0.207038
0.211528
0.216065
0.220648
0.225276
0.229946
0.234657
0.239407
0.244195
0.249018
0.253874
0.258762
0.263678
0.268622
0.273589
0.278578
0.283587
0.288613
0.293653
0.298704
0.303765
0.308831
0.313901
0.318971
0.324038
0.329099
0.334151
0.339191
0.344216
0.349223
0.354208
0.359168
0.364099
0.368998
0.373863
0.378688
0.383471
0.388209
0.392896
0.397531
0.402109
0.406627
0.41108
0.415465
0.419779
0.424016
0.428174
0.432248
0.436235
0.44013
0.443929
0.447628
0.451223
0.45471
0.458083
0.461339
0.464473
0.46748
0.470356
0.473096
0.475695
0.478148
0.48045
0.482596
0.48458
0.486398
0.488043
0.48951
0.490793
0.491886
0.492784
0.49348
0.493968
0.494243
0.494297
0.494125
0.493721
0.493077
0.492188
0.491047
0.48965
0.487988
0.486058
0.483853
0.481368
0.197846
0.0216472
0.022378
0.0231321
0.0239099
0.0247121
0.0255395
0.0263927
0.0272723
0.0281792
0.0291139
0.0300773
0.03107
0.0320929
0.0331466
0.034232
0.0353497
0.0365008
0.0376858
0.0389057
0.0401612
0.0414531
0.0427824
0.0441498
0.0455562
0.0470025
0.0484894
0.0500179
0.0515888
0.0532029
0.0548612
0.0565644
0.0583135
0.0601093
0.0619526
0.0638444
0.0657853
0.0677764
0.0698183
0.0719119
0.074058
0.0762573
0.0785107
0.0808189
0.0831825
0.0856024
0.0880792
0.0906135
0.0932059
0.0958572
0.0985678
0.101338
0.104169
0.107061
0.110013
0.113028
0.116104
0.119243
0.122444
0.125708
0.129034
0.132423
0.135875
0.13939
0.142968
0.146607
0.15031
0.154074
0.1579
0.161786
0.165734
0.169741
0.173807
0.177932
0.182115
0.186354
0.19065
0.194999
0.199402
0.203858
0.208364
0.212919
0.217523
0.222172
0.226866
0.231603
0.236381
0.241198
0.246051
0.250939
0.25586
0.260811
0.265789
0.270793
0.27582
0.280867
0.285932
0.291011
0.296103
0.301203
0.306309
0.311418
0.316527
0.321633
0.326733
0.331822
0.336899
0.341959
0.346999
0.352016
0.357007
0.361967
0.366893
0.371782
0.376629
0.381432
0.386187
0.390889
0.395535
0.400122
0.404645
0.409101
0.413486
0.417796
0.422027
0.426176
0.430238
0.43421
0.438087
0.441866
0.445543
0.449113
0.452573
0.455919
0.459146
0.46225
0.465228
0.468074
0.470785
0.473357
0.475784
0.478063
0.48019
0.482158
0.483965
0.485606
0.487075
0.488368
0.489481
0.490407
0.491144
0.491684
0.492024
0.492158
0.492081
0.491789
0.491275
0.490535
0.489564
0.488357
0.486909
0.485214
0.48327
0.48107
0.478611
0.475889
0.4729
0.187224
0.0227576
0.02353
0.024327
0.0251492
0.0259973
0.0268721
0.0277743
0.0287045
0.0296635
0.0306522
0.0316712
0.0327213
0.0338033
0.0349181
0.0360664
0.0372491
0.038467
0.0397209
0.0410117
0.0423402
0.0437073
0.0451139
0.0465609
0.0480491
0.0495794
0.0511527
0.05277
0.054432
0.0561397
0.057894
0.0596957
0.0615458
0.0634451
0.0653945
0.0673948
0.069447
0.0715518
0.0737101
0.0759228
0.0781905
0.080514
0.0828943
0.0853318
0.0878275
0.090382
0.0929958
0.0956698
0.0984043
0.1012
0.104058
0.106977
0.10996
0.113005
0.116114
0.119286
0.122523
0.125823
0.129188
0.132617
0.13611
0.139668
0.14329
0.146976
0.150725
0.154538
0.158414
0.162352
0.166352
0.170413
0.174535
0.178717
0.182957
0.187256
0.191611
0.196021
0.200486
0.205004
0.209573
0.214192
0.218859
0.223573
0.228332
0.233133
0.237976
0.242857
0.247774
0.252726
0.257709
0.262722
0.267762
0.272826
0.277911
0.283014
0.288134
0.293266
0.298408
0.303556
0.308708
0.313859
0.319008
0.32415
0.329282
0.3344
0.339502
0.344582
0.349639
0.354668
0.359664
0.364626
0.369548
0.374428
0.379261
0.384043
0.388771
0.39344
0.398047
0.402589
0.40706
0.411458
0.415777
0.420015
0.424168
0.428231
0.432201
0.436074
0.439845
0.443512
0.44707
0.450515
0.453844
0.457052
0.460136
0.463092
0.465916
0.468604
0.471153
0.473558
0.475816
0.477922
0.479873
0.481665
0.483294
0.484756
0.486047
0.487163
0.4881
0.488854
0.489421
0.489797
0.489979
0.48996
0.489739
0.48931
0.48867
0.487815
0.48674
0.485442
0.483917
0.482161
0.480171
0.477943
0.475473
0.47276
0.469799
0.466589
0.463128
0.1768
0.0239448
0.0247616
0.0256044
0.026474
0.0273711
0.0282964
0.0292507
0.0302348
0.0312495
0.0322955
0.0333738
0.034485
0.03563
0.0368097
0.0380249
0.0392766
0.0405655
0.0418925
0.0432586
0.0446646
0.0461114
0.0476
0.0491312
0.050706
0.0523254
0.0539901
0.0557012
0.0574595
0.059266
0.0611216
0.0630272
0.0649838
0.0669921
0.0690531
0.0711677
0.0733368
0.0755611
0.0778416
0.080179
0.0825741
0.0850277
0.0875405
0.0901133
0.0927467
0.0954415
0.0981981
0.101017
0.103899
0.106845
0.109855
0.112929
0.116068
0.119272
0.122542
0.125877
0.129278
0.132744
0.136277
0.139875
0.143539
0.147268
0.151062
0.154921
0.158845
0.162832
0.166883
0.170996
0.175171
0.179406
0.183702
0.188057
0.192469
0.196938
0.201462
0.20604
0.21067
0.215351
0.22008
0.224857
0.229678
0.234542
0.239447
0.244391
0.249371
0.254384
0.259429
0.264503
0.269602
0.274724
0.279866
0.285026
0.290199
0.295383
0.300575
0.305771
0.310968
0.316162
0.32135
0.326528
0.331693
0.336841
0.341968
0.34707
0.352143
0.357185
0.362189
0.367154
0.372075
0.376947
0.381767
0.386531
0.391234
0.395874
0.400445
0.404944
0.409366
0.413708
0.417966
0.422136
0.426214
0.430195
0.434077
0.437855
0.441525
0.445084
0.448527
0.451852
0.455054
0.458129
0.461075
0.463886
0.466561
0.469095
0.471485
0.473727
0.475818
0.477754
0.479532
0.481149
0.482601
0.483885
0.484998
0.485936
0.486696
0.487275
0.487669
0.487876
0.487892
0.487714
0.487338
0.486762
0.485983
0.484998
0.483803
0.482396
0.480773
0.478933
0.476873
0.474589
0.47208
0.469344
0.466378
0.463181
0.459751
0.456087
0.452189
0.166622
0.0252145
0.0260786
0.0269702
0.0278903
0.0288395
0.0298187
0.0308287
0.0318702
0.0329441
0.0340512
0.0351924
0.0363686
0.0375806
0.0388294
0.0401157
0.0414406
0.0428048
0.0442095
0.0456554
0.0471436
0.0486749
0.0502503
0.0518707
0.0535372
0.0552506
0.0570119
0.0588221
0.0606821
0.0625929
0.0645553
0.0665703
0.0686389
0.070762
0.0729403
0.0751749
0.0774667
0.0798163
0.0822247
0.0846927
0.087221
0.0898104
0.0924616
0.0951753
0.0979522
0.100793
0.103698
0.106668
0.109703
0.112804
0.115971
0.119205
0.122505
0.125873
0.129307
0.132809
0.136378
0.140015
0.143718
0.147488
0.151325
0.155228
0.159197
0.163231
0.16733
0.171492
0.175718
0.180005
0.184354
0.188763
0.193231
0.197756
0.202337
0.206973
0.211662
0.216402
0.221191
0.226028
0.23091
0.235835
0.240801
0.245806
0.250846
0.25592
0.261025
0.266157
0.271315
0.276495
0.281693
0.286907
0.292134
0.297369
0.302611
0.307854
0.313096
0.318332
0.32356
0.328775
0.333973
0.33915
0.344303
0.349428
0.35452
0.359575
0.36459
0.369559
0.374479
0.379346
0.384156
0.388904
0.393586
0.398198
0.402736
0.407196
0.411573
0.415864
0.420064
0.424169
0.428176
0.43208
0.435878
0.439566
0.443139
0.446595
0.449929
0.453137
0.456218
0.459165
0.461977
0.46465
0.467181
0.469565
0.471801
0.473885
0.475813
0.477583
0.479193
0.480638
0.481916
0.483025
0.483961
0.484722
0.485305
0.485708
0.485928
0.485963
0.485811
0.485468
0.484932
0.484203
0.483276
0.48215
0.480823
0.479293
0.477558
0.475617
0.473466
0.471106
0.468534
0.465749
0.46275
0.459536
0.456107
0.45246
0.448598
0.444518
0.440223
0.156733
0.0265724
0.0274869
0.0284307
0.0294046
0.0304094
0.031446
0.0325152
0.0336178
0.0347547
0.0359268
0.0371351
0.0383803
0.0396635
0.0409856
0.0423474
0.04375
0.0451943
0.0466812
0.0482118
0.0497869
0.0514076
0.0530749
0.0547897
0.056553
0.0583659
0.0602292
0.0621439
0.0641111
0.0661316
0.0682065
0.0703367
0.0725231
0.0747666
0.0770681
0.0794285
0.0818487
0.0843295
0.0868717
0.0894761
0.0921434
0.0948744
0.0976698
0.10053
0.103456
0.106448
0.109507
0.112633
0.115826
0.119087
0.122416
0.125814
0.129281
0.132815
0.136419
0.140091
0.143832
0.147641
0.151518
0.155463
0.159475
0.163553
0.167698
0.171907
0.176181
0.180518
0.184918
0.189379
0.193899
0.198479
0.203115
0.207806
0.212552
0.217349
0.222196
0.227092
0.232032
0.237017
0.242042
0.247106
0.252206
0.257339
0.262502
0.267692
0.272907
0.278143
0.283396
0.288665
0.293944
0.29923
0.304521
0.309811
0.315097
0.320376
0.325644
0.330895
0.336128
0.341336
0.346516
0.351664
0.356775
0.361846
0.366871
0.371848
0.37677
0.381634
0.386435
0.39117
0.395834
0.400421
0.40493
0.409353
0.413689
0.417932
0.422078
0.426123
0.430064
0.433895
0.437614
0.441216
0.444698
0.448056
0.451285
0.454384
0.457348
0.460173
0.462857
0.465397
0.467788
0.470029
0.472116
0.474047
0.475818
0.477428
0.478873
0.48015
0.481259
0.482196
0.482959
0.483546
0.483955
0.484183
0.48423
0.484093
0.483771
0.483262
0.482564
0.481676
0.480596
0.479323
0.477856
0.476194
0.474335
0.472279
0.470025
0.467572
0.464918
0.462065
0.459011
0.455756
0.4523
0.448644
0.444786
0.440729
0.436473
0.432019
0.427368
0.147165
0.0280249
0.0289931
0.0299925
0.0310237
0.0320878
0.0331854
0.0343176
0.0354852
0.0366892
0.0379305
0.03921
0.0405286
0.0418874
0.0432873
0.0447292
0.0462142
0.0477433
0.0493174
0.0509375
0.0526048
0.0543201
0.0560845
0.057899
0.0597646
0.0616823
0.0636531
0.065678
0.067758
0.0698941
0.0720872
0.0743383
0.0766483
0.0790181
0.0814486
0.0839408
0.0864953
0.0891131
0.0917949
0.0945415
0.0973536
0.100232
0.103177
0.106189
0.10927
0.112418
0.115636
0.118923
0.122279
0.125705
0.129201
0.132767
0.136403
0.140109
0.143885
0.147731
0.151646
0.15563
0.159682
0.163803
0.167991
0.172245
0.176565
0.18095
0.185398
0.189908
0.19448
0.199111
0.2038
0.208546
0.213346
0.218198
0.223101
0.228053
0.233051
0.238093
0.243176
0.248297
0.253454
0.258645
0.263865
0.269112
0.274383
0.279674
0.284982
0.290303
0.295634
0.300971
0.30631
0.311647
0.316978
0.3223
0.327607
0.332896
0.338163
0.343402
0.34861
0.353783
0.358915
0.364003
0.369041
0.374026
0.378952
0.383815
0.388611
0.393336
0.397983
0.40255
0.407031
0.411423
0.415721
0.41992
0.424016
0.428006
0.431885
0.435648
0.439293
0.442815
0.44621
0.449475
0.452606
0.4556
0.458453
0.461162
0.463724
0.466136
0.468395
0.470499
0.472443
0.474227
0.475847
0.477301
0.478587
0.479703
0.480647
0.481417