/*--------------------------------*- C++ -*----------------------------------*\
| =========                 |                                                 |
| \\      /  F ield         | OpenFOAM: The Open Source CFD Toolbox           |
|  \\    /   O peration     | Version:  v1806                                 |
|   \\  /    A nd           | Web:      www.OpenFOAM.com                      |
|    \\/     M anipulation  |                                                 |
\*---------------------------------------------------------------------------*/
FoamFile
{
    version     2.0;
    format      ascii;
    class       volScalarField;
    location    "0";
    object      cellVolumeRatio;
}
// * * * * * * * * * * * * * * * * * * * * * * * * * * * * * * * * * * * * * //

dimensions      [0 0 0 0 0 0 0];


internalField   nonuniform List<scalar> 
69504
(
0.925735
0.925878
0.926022
0.926167
0.926313
0.92646
0.926608
0.926758
0.926908
0.92706
0.927213
0.927367
0.927522
0.927679
0.927836
0.927995
0.928155
0.928316
0.928479
0.928642
0.928807
0.928973
0.929141
0.92931
0.92948
0.929651
0.929824
0.929997
0.930173
0.930349
0.930527
0.930706
0.930887
0.931069
0.931252
0.931437
0.931623
0.931811
0.932
0.93219
0.932382
0.932576
0.932771
0.932967
0.933165
0.933364
0.933565
0.933767
0.933971
0.934177
0.934383
0.934592
0.934802
0.935014
0.935227
0.935442
0.935659
0.935877
0.936097
0.936318
0.936542
0.936767
0.936993
0.937221
0.937451
0.937683
0.937917
0.938152
0.938389
0.938628
0.938868
0.939111
0.939355
0.939601
0.939849
0.940099
0.940351
0.940604
0.94086
0.941117
0.941376
0.941637
0.9419
0.942166
0.942433
0.942702
0.942973
0.943246
0.943521
0.943798
0.944077
0.944358
0.944641
0.944927
0.945214
0.945504
0.945795
0.946089
0.946385
0.946683
0.946983
0.947285
0.94759
0.947897
0.948205
0.948517
0.94883
0.949145
0.949463
0.949783
0.950106
0.95043
0.950757
0.951086
0.951418
0.951751
0.952087
0.952426
0.952766
0.953109
0.953455
0.953802
0.954152
0.954505
0.95486
0.955217
0.955576
0.955938
0.956302
0.956669
0.957037
0.957409
0.957782
0.958158
0.958537
0.958918
0.959301
0.959686
0.960074
0.960464
0.960857
0.961252
0.961649
0.962049
0.962451
0.962855
0.963261
0.96367
0.964081
0.964495
0.96491
0.965328
0.965748
0.96617
0.966595
0.967021
0.96745
0.967881
0.968314
0.968749
0.969186
0.969626
0.970067
0.97051
0.970955
0.971402
0.971851
0.925735
0.925878
0.926022
0.926167
0.926313
0.92646
0.926608
0.926758
0.926908
0.92706
0.927213
0.927367
0.927522
0.927679
0.927836
0.927995
0.928155
0.928316
0.928479
0.928642
0.928807
0.928973
0.929141
0.92931
0.92948
0.929651
0.929824
0.929997
0.930173
0.930349
0.930527
0.930706
0.930887
0.931069
0.931252
0.931437
0.931623
0.931811
0.932
0.93219
0.932382
0.932576
0.932771
0.932967
0.933165
0.933364
0.933565
0.933767
0.933971
0.934177
0.934383
0.934592
0.934802
0.935014
0.935227
0.935442
0.935659
0.935877
0.936097
0.936318
0.936542
0.936767
0.936993
0.937221
0.937451
0.937683
0.937917
0.938152
0.938389
0.938628
0.938868
0.939111
0.939355
0.939601
0.939849
0.940099
0.940351
0.940604
0.94086
0.941117
0.941376
0.941637
0.9419
0.942166
0.942433
0.942702
0.942973
0.943246
0.943521
0.943798
0.944077
0.944358
0.944641
0.944927
0.945214
0.945504
0.945795
0.946089
0.946385
0.946683
0.946983
0.947285
0.94759
0.947897
0.948205
0.948517
0.94883
0.949145
0.949463
0.949783
0.950106
0.95043
0.950757
0.951086
0.951418
0.951751
0.952087
0.952412
0.952737
0.953063
0.953391
0.953722
0.954054
0.954389
0.954725
0.955063
0.955403
0.955746
0.95609
0.956436
0.956784
0.957135
0.957487
0.957841
0.958197
0.958555
0.958915
0.959277
0.95964
0.960006
0.960374
0.960743
0.961115
0.961488
0.961863
0.96224
0.962619
0.963
0.963382
0.963767
0.964153
0.96454
0.96493
0.965321
0.965714
0.966109
0.966505
0.966903
0.967303
0.967704
0.968107
0.968511
0.968917
0.969324
0.969732
0.970142
0.970554
0.926237
0.926381
0.926526
0.926672
0.92682
0.926968
0.927117
0.927268
0.92742
0.927572
0.927726
0.927881
0.928037
0.928195
0.928353
0.928513
0.928673
0.928835
0.928998
0.929162
0.929328
0.929494
0.929662
0.929831
0.930002
0.930173
0.930346
0.93052
0.930695
0.930871
0.931049
0.931228
0.931409
0.93159
0.931773
0.931958
0.932143
0.93233
0.932518
0.932708
0.932899
0.933091
0.933285
0.93348
0.933677
0.933875
0.934074
0.934275
0.934477
0.934681
0.934886
0.935092
0.9353
0.93551
0.935721
0.935933
0.936147
0.936363
0.93658
0.936798
0.937018
0.93724
0.937463
0.937688
0.937915
0.938143
0.938372
0.938603
0.938836
0.939071
0.939307
0.939545
0.939784
0.940025
0.940268
0.940512
0.940758
0.941006
0.941256
0.941507
0.94176
0.942015
0.942271
0.942529
0.942789
0.943051
0.943315
0.94358
0.943847
0.944116
0.944387
0.94466
0.944934
0.945211
0.945489
0.945769
0.946051
0.946334
0.94662
0.946907
0.947197
0.947488
0.947781
0.948077
0.948374
0.948673
0.948973
0.949276
0.949581
0.949888
0.950196
0.950507
0.95082
0.951134
0.951451
0.951769
0.95209
0.9524
0.952709
0.953019
0.953331
0.953645
0.953961
0.954278
0.954597
0.954918
0.95524
0.955564
0.95589
0.956217
0.956546
0.956876
0.957208
0.957542
0.957877
0.958214
0.958552
0.958892
0.959234
0.959577
0.959921
0.960267
0.960615
0.960964
0.961315
0.961667
0.96202
0.962375
0.962732
0.96309
0.963449
0.963809
0.964171
0.964534
0.964899
0.965264
0.965631
0.966
0.966369
0.96674
0.967111
0.967484
0.967858
0.968233
0.968609
0.968986
0.969364
0.923895
0.92689
0.927036
0.927184
0.927332
0.927481
0.927632
0.927783
0.927936
0.92809
0.928244
0.9284
0.928557
0.928715
0.928874
0.929034
0.929195
0.929357
0.929521
0.929685
0.929851
0.930018
0.930186
0.930355
0.930525
0.930697
0.930869
0.931043
0.931218
0.931395
0.931572
0.931751
0.93193
0.932111
0.932294
0.932477
0.932662
0.932848
0.933035
0.933224
0.933414
0.933605
0.933797
0.933991
0.934186
0.934382
0.93458
0.934779
0.934979
0.935181
0.935384
0.935588
0.935794
0.936001
0.936209
0.936419
0.93663
0.936843
0.937057
0.937272
0.937489
0.937708
0.937927
0.938148
0.938371
0.938595
0.938821
0.939048
0.939276
0.939506
0.939737
0.93997
0.940205
0.940441
0.940678
0.940917
0.941158
0.9414
0.941643
0.941888
0.942135
0.942383
0.942633
0.942884
0.943137
0.943392
0.943648
0.943906
0.944165
0.944426
0.944688
0.944953
0.945218
0.945486
0.945755
0.946025
0.946298
0.946572
0.946847
0.947125
0.947403
0.947684
0.947966
0.94825
0.948536
0.948823
0.949112
0.949402
0.949694
0.949988
0.950284
0.950581
0.95088
0.95118
0.951483
0.951787
0.952092
0.952388
0.952682
0.952978
0.953275
0.953573
0.953873
0.954174
0.954476
0.95478
0.955086
0.955392
0.9557
0.95601
0.95632
0.956632
0.956945
0.95726
0.957576
0.957893
0.958211
0.958531
0.958852
0.959174
0.959497
0.959822
0.960147
0.960474
0.960802
0.961131
0.961462
0.961793
0.962125
0.962459
0.962793
0.963129
0.963466
0.963803
0.964142
0.964481
0.964822
0.965163
0.965505
0.965848
0.966192
0.966537
0.966882
0.967228
0.967575
0.967922
0.968271
0.911188
0.927404
0.927552
0.9277
0.927849
0.928
0.928151
0.928303
0.928456
0.928611
0.928766
0.928922
0.92908
0.929238
0.929398
0.929558
0.92972
0.929882
0.930046
0.93021
0.930376
0.930543
0.930711
0.93088
0.93105
0.931222
0.931394
0.931567
0.931742
0.931918
0.932094
0.932272
0.932452
0.932632
0.932813
0.932996
0.93318
0.933364
0.933551
0.933738
0.933926
0.934116
0.934307
0.934499
0.934692
0.934887
0.935082
0.935279
0.935478
0.935677
0.935878
0.936079
0.936283
0.936487
0.936693
0.9369
0.937108
0.937317
0.937528
0.93774
0.937954
0.938168
0.938384
0.938602
0.93882
0.93904
0.939261
0.939484
0.939708
0.939933
0.94016
0.940388
0.940617
0.940848
0.94108
0.941313
0.941548
0.941784
0.942022
0.942261
0.942501
0.942743
0.942986
0.94323
0.943476
0.943723
0.943972
0.944222
0.944474
0.944727
0.944981
0.945237
0.945494
0.945753
0.946013
0.946274
0.946537
0.946801
0.947067
0.947334
0.947603
0.947873
0.948144
0.948417
0.948691
0.948967
0.949244
0.949523
0.949803
0.950085
0.950368
0.950652
0.950938
0.951225
0.951513
0.951803
0.952095
0.952377
0.952657
0.952938
0.953221
0.953504
0.953789
0.954075
0.954362
0.95465
0.954939
0.95523
0.955521
0.955814
0.956107
0.956402
0.956698
0.956994
0.957292
0.957591
0.95789
0.958191
0.958493
0.958795
0.959099
0.959403
0.959709
0.960015
0.960322
0.96063
0.960939
0.961249
0.961559
0.961871
0.962183
0.962495
0.962809
0.963123
0.963438
0.963754
0.96407
0.964387
0.964704
0.965022
0.965341
0.96566
0.96598
0.9663
0.96662
0.966941
0.967263
0.899078
0.927924
0.928072
0.928221
0.928371
0.928522
0.928674
0.928827
0.928981
0.929135
0.929291
0.929448
0.929605
0.929764
0.929924
0.930084
0.930246
0.930409
0.930572
0.930737
0.930903
0.931069
0.931237
0.931406
0.931576
0.931746
0.931918
0.932091
0.932265
0.93244
0.932616
0.932793
0.932971
0.933151
0.933331
0.933512
0.933695
0.933879
0.934063
0.934249
0.934436
0.934624
0.934813
0.935003
0.935194
0.935387
0.935581
0.935775
0.935971
0.936168
0.936366
0.936565
0.936766
0.936967
0.93717
0.937374
0.937579
0.937785
0.937993
0.938201
0.938411
0.938622
0.938834
0.939047
0.939262
0.939478
0.939694
0.939913
0.940132
0.940352
0.940574
0.940797
0.941021
0.941246
0.941473
0.941701
0.94193
0.94216
0.942391
0.942624
0.942858
0.943093
0.943329
0.943567
0.943806
0.944046
0.944287
0.94453
0.944773
0.945018
0.945265
0.945512
0.945761
0.946011
0.946262
0.946514
0.946768
0.947023
0.947279
0.947536
0.947795
0.948055
0.948316
0.948578
0.948842
0.949106
0.949372
0.949639
0.949908
0.950177
0.950448
0.95072
0.950993
0.951267
0.951543
0.95182
0.952097
0.952366
0.952633
0.952901
0.953169
0.953439
0.95371
0.953981
0.954253
0.954527
0.954801
0.955076
0.955352
0.955628
0.955906
0.956184
0.956464
0.956744
0.957024
0.957306
0.957588
0.957871
0.958155
0.95844
0.958725
0.959011
0.959297
0.959585
0.959873
0.960161
0.96045
0.96074
0.96103
0.961321
0.961613
0.961905
0.962197
0.96249
0.962783
0.963077
0.963371
0.963666
0.963961
0.964257
0.964552
0.964848
0.965145
0.965441
0.965738
0.966035
0.966332
0.887526
0.928447
0.928596
0.928746
0.928896
0.929048
0.9292
0.929353
0.929507
0.929663
0.929819
0.929975
0.930133
0.930292
0.930452
0.930612
0.930774
0.930936
0.9311
0.931264
0.931429
0.931596
0.931763
0.931931
0.9321
0.932271
0.932442
0.932614
0.932787
0.932961
0.933136
0.933312
0.933489
0.933667
0.933846
0.934026
0.934207
0.934389
0.934573
0.934757
0.934942
0.935128
0.935315
0.935503
0.935692
0.935883
0.936074
0.936266
0.936459
0.936654
0.936849
0.937046
0.937243
0.937442
0.937641
0.937842
0.938044
0.938246
0.93845
0.938655
0.938861
0.939068
0.939276
0.939485
0.939696
0.939907
0.940119
0.940333
0.940547
0.940763
0.94098
0.941197
0.941416
0.941636
0.941857
0.942079
0.942302
0.942526
0.942752
0.942978
0.943206
0.943434
0.943664
0.943894
0.944126
0.944359
0.944593
0.944828
0.945064
0.945301
0.94554
0.945779
0.946019
0.946261
0.946503
0.946747
0.946991
0.947237
0.947484
0.947731
0.94798
0.94823
0.948481
0.948733
0.948986
0.94924
0.949495
0.949751
0.950008
0.950266
0.950525
0.950785
0.951046
0.951308
0.951571
0.951835
0.9521
0.952356
0.95261
0.952865
0.953121
0.953377
0.953634
0.953892
0.954151
0.95441
0.95467
0.95493
0.955191
0.955453
0.955716
0.955979
0.956243
0.956507
0.956772
0.957038
0.957304
0.95757
0.957837
0.958105
0.958373
0.958642
0.958911
0.959181
0.959451
0.959722
0.959993
0.960264
0.960536
0.960808
0.96108
0.961353
0.961626
0.961899
0.962173
0.962447
0.962721
0.962996
0.96327
0.963545
0.96382
0.964095
0.96437
0.964645
0.96492
0.965196
0.965471
0.876495
0.928974
0.929124
0.929274
0.929424
0.929576
0.929729
0.929882
0.930036
0.930192
0.930348
0.930505
0.930662
0.930821
0.93098
0.931141
0.931302
0.931464
0.931627
0.931791
0.931956
0.932122
0.932288
0.932456
0.932624
0.932794
0.932964
0.933135
0.933307
0.93348
0.933654
0.933829
0.934004
0.934181
0.934358
0.934537
0.934716
0.934897
0.935078
0.93526
0.935443
0.935627
0.935812
0.935998
0.936185
0.936373
0.936562
0.936751
0.936942
0.937133
0.937326
0.937519
0.937714
0.937909
0.938106
0.938303
0.938501
0.9387
0.9389
0.939101
0.939303
0.939506
0.93971
0.939915
0.940121
0.940328
0.940536
0.940744
0.940954
0.941165
0.941376
0.941589
0.941802
0.942017
0.942232
0.942448
0.942666
0.942884
0.943103
0.943323
0.943544
0.943766
0.943989
0.944213
0.944438
0.944663
0.94489
0.945117
0.945346
0.945575
0.945806
0.946037
0.946269
0.946502
0.946736
0.946971
0.947207
0.947443
0.947681
0.947919
0.948159
0.948399
0.94864
0.948882
0.949125
0.949368
0.949613
0.949858
0.950104
0.950351
0.950599
0.950848
0.951097
0.951347
0.951598
0.95185
0.952103
0.952347
0.952589
0.952832
0.953075
0.953318
0.953563
0.953808
0.954053
0.954299
0.954545
0.954792
0.95504
0.955288
0.955536
0.955785
0.956034
0.956284
0.956534
0.956784
0.957035
0.957287
0.957538
0.95779
0.958043
0.958296
0.958549
0.958802
0.959056
0.959309
0.959564
0.959818
0.960072
0.960327
0.960582
0.960837
0.961093
0.961348
0.961604
0.961859
0.962115
0.962371
0.962627
0.962883
0.963139
0.963394
0.96365
0.963906
0.964162
0.964418
0.964673
0.865952
0.929504
0.929653
0.929804
0.929955
0.930106
0.930259
0.930413
0.930567
0.930722
0.930878
0.931034
0.931192
0.93135
0.931509
0.931669
0.93183
0.931992
0.932154
0.932318
0.932482
0.932647
0.932812
0.932979
0.933146
0.933315
0.933484
0.933654
0.933824
0.933996
0.934169
0.934342
0.934516
0.934691
0.934867
0.935044
0.935221
0.9354
0.935579
0.935759
0.93594
0.936122
0.936304
0.936488
0.936672
0.936857
0.937043
0.93723
0.937418
0.937607
0.937796
0.937986
0.938178
0.93837
0.938562
0.938756
0.938951
0.939146
0.939343
0.93954
0.939738
0.939936
0.940136
0.940337
0.940538
0.94074
0.940943
0.941147
0.941352
0.941557
0.941764
0.941971
0.942179
0.942388
0.942598
0.942808
0.94302
0.943232
0.943445
0.943659
0.943873
0.944089
0.944305
0.944522
0.94474
0.944958
0.945178
0.945398
0.945619
0.945841
0.946063
0.946287
0.946511
0.946736
0.946961
0.947188
0.947415
0.947643
0.947871
0.948101
0.948331
0.948561
0.948793
0.949025
0.949258
0.949492
0.949726
0.949961
0.950197
0.950433
0.95067
0.950908
0.951146
0.951385
0.951625
0.951865
0.952106
0.952338
0.952569
0.9528
0.953031
0.953263
0.953495
0.953727
0.95396
0.954194
0.954427
0.954662
0.954896
0.955131
0.955366
0.955601
0.955837
0.956073
0.956309
0.956546
0.956782
0.957019
0.957257
0.957494
0.957732
0.957969
0.958207
0.958446
0.958684
0.958922
0.959161
0.9594
0.959638
0.959877
0.960116
0.960355
0.960594
0.960833
0.961072
0.96131
0.961549
0.961788
0.962027
0.962266
0.962504
0.962743
0.962981
0.963219
0.963457
0.963695
0.963932
0.85587
0.930035
0.930185
0.930335
0.930486
0.930638
0.93079
0.930944
0.931098
0.931252
0.931408
0.931564
0.931721
0.931879
0.932038
0.932197
0.932357
0.932518
0.93268
0.932842
0.933005
0.933169
0.933334
0.9335
0.933666
0.933833
0.934001
0.934169
0.934339
0.934509
0.93468
0.934851
0.935024
0.935197
0.935371
0.935546
0.935721
0.935897
0.936075
0.936252
0.936431
0.93661
0.93679
0.936971
0.937153
0.937335
0.937519
0.937703
0.937887
0.938073
0.938259
0.938446
0.938634
0.938822
0.939012
0.939202
0.939393
0.939584
0.939776
0.93997
0.940163
0.940358
0.940553
0.940749
0.940946
0.941144
0.941342
0.941541
0.94174
0.941941
0.942142
0.942344
0.942547
0.94275
0.942954
0.943159
0.943364
0.94357
0.943777
0.943985
0.944193
0.944402
0.944611
0.944822
0.945033
0.945244
0.945457
0.94567
0.945883
0.946098
0.946312
0.946528
0.946744
0.946961
0.947179
0.947397
0.947615
0.947835
0.948055
0.948275
0.948496
0.948718
0.94894
0.949163
0.949386
0.94961
0.949835
0.95006
0.950285
0.950511
0.950738
0.950965
0.951193
0.951421
0.95165
0.951879
0.952108
0.95233
0.95255
0.952769
0.952989
0.95321
0.95343
0.953651
0.953873
0.954094
0.954316
0.954538
0.95476
0.954982
0.955205
0.955427
0.95565
0.955873
0.956097
0.95632
0.956544
0.956767
0.956991
0.957215
0.957439
0.957663
0.957887
0.958111
0.958335
0.958559
0.958783
0.959007
0.959231
0.959455
0.959679
0.959903
0.960127
0.96035
0.960574
0.960797
0.961021
0.961244
0.961467
0.96169
0.961912
0.962135
0.962357
0.962579
0.962801
0.963022
0.963243
0.846221
0.930568
0.930717
0.930867
0.931018
0.93117
0.931322
0.931475
0.931628
0.931783
0.931938
0.932094
0.93225
0.932407
0.932565
0.932724
0.932883
0.933043
0.933203
0.933365
0.933527
0.93369
0.933853
0.934017
0.934182
0.934348
0.934514
0.934681
0.934849
0.935017
0.935187
0.935356
0.935527
0.935698
0.93587
0.936043
0.936216
0.93639
0.936565
0.93674
0.936916
0.937093
0.93727
0.937448
0.937627
0.937807
0.937987
0.938168
0.938349
0.938532
0.938715
0.938898
0.939082
0.939267
0.939453
0.939639
0.939826
0.940014
0.940202
0.940391
0.94058
0.940771
0.940961
0.941153
0.941345
0.941538
0.941731
0.941925
0.94212
0.942315
0.942511
0.942708
0.942905
0.943102
0.943301
0.9435
0.943699
0.943899
0.9441
0.944301
0.944503
0.944706
0.944909
0.945112
0.945317
0.945521
0.945727
0.945932
0.946139
0.946346
0.946553
0.946761
0.94697
0.947179
0.947388
0.947598
0.947809
0.94802
0.948231
0.948443
0.948655
0.948868
0.949081
0.949295
0.949509
0.949724
0.949939
0.950154
0.95037
0.950587
0.950803
0.95102
0.951238
0.951455
0.951674
0.951892
0.952111
0.952322
0.952531
0.952741
0.95295
0.95316
0.953369
0.953579
0.953789
0.954
0.95421
0.95442
0.954631
0.954842
0.955052
0.955263
0.955474
0.955685
0.955896
0.956107
0.956318
0.956529
0.95674
0.956951
0.957162
0.957373
0.957584
0.957795
0.958006
0.958217
0.958428
0.958638
0.958849
0.959059
0.959269
0.959479
0.959689
0.959899
0.960108
0.960317
0.960526
0.960735
0.960944
0.961152
0.96136
0.961568
0.961775
0.961982
0.962189
0.962396
0.962602
0.836981
0.931101
0.93125
0.9314
0.93155
0.931701
0.931853
0.932005
0.932158
0.932312
0.932466
0.932621
0.932777
0.932933
0.93309
0.933248
0.933406
0.933565
0.933724
0.933884
0.934045
0.934207
0.934369
0.934532
0.934695
0.934859
0.935024
0.935189
0.935355
0.935521
0.935688
0.935856
0.936025
0.936194
0.936363
0.936534
0.936705
0.936876
0.937048
0.937221
0.937395
0.937569
0.937743
0.937919
0.938094
0.938271
0.938448
0.938626
0.938804
0.938983
0.939162
0.939342
0.939523
0.939704
0.939886
0.940068
0.940251
0.940435
0.940619
0.940803
0.940988
0.941174
0.941361
0.941547
0.941735
0.941923
0.942111
0.9423
0.94249
0.94268
0.942871
0.943062
0.943253
0.943445
0.943638
0.943831
0.944025
0.944219
0.944414
0.944609
0.944805
0.945001
0.945197
0.945394
0.945592
0.94579
0.945988
0.946187
0.946386
0.946586
0.946786
0.946986
0.947187
0.947388
0.94759
0.947792
0.947995
0.948198
0.948401
0.948604
0.948808
0.949013
0.949217
0.949422
0.949627
0.949833
0.950039
0.950245
0.950452
0.950659
0.950866
0.951073
0.951281
0.951489
0.951697
0.951905
0.952114
0.952315
0.952514
0.952713
0.952913
0.953112
0.953311
0.953511
0.95371
0.95391
0.954109
0.954309
0.954509
0.954708
0.954908
0.955108
0.955307
0.955507
0.955706
0.955906
0.956105
0.956305
0.956504
0.956703
0.956902
0.957101
0.9573
0.957498
0.957697
0.957895
0.958094
0.958292
0.958489
0.958687
0.958884
0.959081
0.959278
0.959475
0.959672
0.959868
0.960064
0.960259
0.960454
0.960649
0.960844
0.961038
0.961232
0.961425
0.961619
0.961811
0.962004
0.828128
0.931633
0.931782
0.931931
0.932081
0.932232
0.932383
0.932534
0.932687
0.93284
0.932993
0.933147
0.933302
0.933457
0.933613
0.933769
0.933926
0.934084
0.934242
0.934401
0.93456
0.93472
0.93488
0.935041
0.935203
0.935365
0.935528
0.935691
0.935855
0.93602
0.936185
0.936351
0.936517
0.936684
0.936851
0.937019
0.937187
0.937356
0.937526
0.937696
0.937866
0.938037
0.938209
0.938381
0.938554
0.938727
0.938901
0.939075
0.93925
0.939426
0.939601
0.939778
0.939955
0.940132
0.94031
0.940488
0.940667
0.940846
0.941026
0.941207
0.941387
0.941569
0.94175
0.941933
0.942115
0.942298
0.942482
0.942666
0.94285
0.943035
0.943221
0.943406
0.943592
0.943779
0.943966
0.944153
0.944341
0.944529
0.944718
0.944907
0.945096
0.945286
0.945476
0.945667
0.945858
0.946049
0.94624
0.946432
0.946625
0.946817
0.94701
0.947203
0.947397
0.947591
0.947785
0.947979
0.948174
0.948369
0.948564
0.94876
0.948955
0.949151
0.949348
0.949544
0.949741
0.949938
0.950135
0.950332
0.95053
0.950728
0.950925
0.951124
0.951322
0.95152
0.951719
0.951917
0.952116
0.952308
0.952498
0.952687
0.952877
0.953067
0.953256
0.953446
0.953635
0.953825
0.954014
0.954204
0.954393
0.954582
0.954771
0.95496
0.955149
0.955338
0.955527
0.955716
0.955904
0.956092
0.956281
0.956469
0.956656
0.956844
0.957032
0.957219
0.957406
0.957593
0.957779
0.957965
0.958152
0.958337
0.958523
0.958708
0.958893
0.959078
0.959262
0.959446
0.95963
0.959813
0.959996
0.960178
0.960361
0.960543
0.960724
0.960905
0.961086
0.961266
0.961445
0.819643
0.932165
0.932313
0.932462
0.932611
0.932761
0.932911
0.933062
0.933213
0.933365
0.933517
0.93367
0.933823
0.933977
0.934132
0.934287
0.934443
0.934599
0.934755
0.934913
0.93507
0.935228
0.935387
0.935546
0.935706
0.935867
0.936027
0.936189
0.93635
0.936513
0.936675
0.936839
0.937003
0.937167
0.937332
0.937497
0.937663
0.937829
0.937996
0.938163
0.93833
0.938499
0.938667
0.938836
0.939006
0.939176
0.939346
0.939517
0.939688
0.93986
0.940032
0.940205
0.940378
0.940551
0.940725
0.940899
0.941074
0.941249
0.941425
0.941601
0.941777
0.941954
0.942131
0.942308
0.942486
0.942664
0.942843
0.943022
0.943201
0.943381
0.943561
0.943741
0.943922
0.944103
0.944284
0.944466
0.944648
0.94483
0.945013
0.945196
0.945379
0.945563
0.945747
0.945931
0.946115
0.9463
0.946485
0.94667
0.946855
0.947041
0.947227
0.947413
0.947599
0.947786
0.947972
0.948159
0.948346
0.948534
0.948721
0.948909
0.949097
0.949285
0.949473
0.949661
0.94985
0.950038
0.950227
0.950416
0.950605
0.950794
0.950983
0.951172
0.951361
0.951551
0.95174
0.951929
0.952119
0.952302
0.952482
0.952663
0.952843
0.953024
0.953204
0.953384
0.953564
0.953744
0.953924
0.954103
0.954283
0.954462
0.954642
0.954821
0.955
0.955179
0.955357
0.955536
0.955714
0.955892
0.95607
0.956247
0.956425
0.956602
0.956778
0.956955
0.957131
0.957307
0.957483
0.957659
0.957834
0.958009
0.958183
0.958357
0.958531
0.958704
0.958878
0.95905
0.959223
0.959395
0.959566
0.959737
0.959908
0.960079
0.960248
0.960418
0.960587
0.960756
0.960924
0.811507
0.932695
0.932842
0.93299
0.933138
0.933287
0.933436
0.933586
0.933736
0.933887
0.934038
0.934189
0.934341
0.934494
0.934647
0.934801
0.934955
0.935109
0.935264
0.93542
0.935576
0.935732
0.935889
0.936046
0.936204
0.936362
0.936521
0.93668
0.936839
0.936999
0.93716
0.93732
0.937482
0.937643
0.937805
0.937968
0.938131
0.938294
0.938458
0.938622
0.938787
0.938952
0.939117
0.939283
0.939449
0.939616
0.939782
0.93995
0.940117
0.940285
0.940454
0.940623
0.940792
0.940961
0.941131
0.941301
0.941472
0.941642
0.941814
0.941985
0.942157
0.942329
0.942502
0.942674
0.942847
0.943021
0.943194
0.943368
0.943542
0.943717
0.943892
0.944067
0.944242
0.944418
0.944593
0.944769
0.944946
0.945122
0.945299
0.945476
0.945653
0.94583
0.946008
0.946186
0.946364
0.946542
0.94672
0.946899
0.947077
0.947256
0.947435
0.947614
0.947794
0.947973
0.948153
0.948332
0.948512
0.948692
0.948872
0.949052
0.949232
0.949413
0.949593
0.949773
0.949954
0.950134
0.950315
0.950496
0.950676
0.950857
0.951037
0.951218
0.951399
0.95158
0.95176
0.951941
0.952121
0.952296
0.952468
0.95264
0.952811
0.952983
0.953154
0.953325
0.953496
0.953667
0.953838
0.954009
0.954179
0.954349
0.954519
0.954689
0.954858
0.955028
0.955197
0.955365
0.955534
0.955702
0.95587
0.956038
0.956206
0.956373
0.95654
0.956706
0.956873
0.957039
0.957204
0.95737
0.957534
0.957699
0.957863
0.958027
0.958191
0.958354
0.958516
0.958679
0.958841
0.959002
0.959163
0.959324
0.959484
0.959644
0.959803
0.959962
0.96012
0.960278
0.960436
0.803704
0.933223
0.933369
0.933516
0.933663
0.93381
0.933958
0.934107
0.934256
0.934405
0.934555
0.934705
0.934855
0.935006
0.935158
0.93531
0.935462
0.935615
0.935768
0.935921
0.936075
0.93623
0.936384
0.93654
0.936695
0.936851
0.937007
0.937164
0.937321
0.937479
0.937637
0.937795
0.937953
0.938112
0.938272
0.938431
0.938591
0.938752
0.938912
0.939073
0.939235
0.939397
0.939559
0.939721
0.939884
0.940047
0.94021
0.940374
0.940538
0.940702
0.940867
0.941031
0.941197
0.941362
0.941528
0.941694
0.94186
0.942026
0.942193
0.94236
0.942527
0.942695
0.942863
0.943031
0.943199
0.943367
0.943536
0.943705
0.943874
0.944043
0.944213
0.944383
0.944553
0.944723
0.944893
0.945063
0.945234
0.945405
0.945576
0.945747
0.945918
0.946089
0.946261
0.946432
0.946604
0.946776
0.946948
0.94712
0.947292
0.947464
0.947636
0.947809
0.947981
0.948154
0.948326
0.948499
0.948672
0.948844
0.949017
0.94919
0.949363
0.949535
0.949708
0.949881
0.950054
0.950227
0.950399
0.950572
0.950745
0.950917
0.95109
0.951262
0.951435
0.951607
0.95178
0.951952
0.952124
0.95229
0.952454
0.952617
0.952781
0.952944
0.953107
0.95327
0.953432
0.953594
0.953757
0.953918
0.95408
0.954242
0.954403
0.954564
0.954724
0.954885
0.955045
0.955204
0.955364
0.955523
0.955682
0.955841
0.955999
0.956157
0.956314
0.956472
0.956629
0.956785
0.956941
0.957097
0.957253
0.957408
0.957562
0.957717
0.95787
0.958024
0.958177
0.958329
0.958482
0.958633
0.958785
0.958936
0.959086
0.959236
0.959385
0.959534
0.959683
0.959831
0.959978
0.796217
0.933747
0.933892
0.934038
0.934184
0.93433
0.934476
0.934623
0.934771
0.934919
0.935067
0.935215
0.935364
0.935514
0.935663
0.935813
0.935964
0.936115
0.936266
0.936417
0.936569
0.936721
0.936874
0.937027
0.93718
0.937334
0.937487
0.937642
0.937796
0.937951
0.938106
0.938262
0.938418
0.938574
0.93873
0.938887
0.939044
0.939201
0.939359
0.939516
0.939674
0.939833
0.939992
0.94015
0.94031
0.940469
0.940629
0.940789
0.940949
0.941109
0.94127
0.941431
0.941592
0.941753
0.941915
0.942077
0.942238
0.942401
0.942563
0.942726
0.942888
0.943051
0.943214
0.943377
0.943541
0.943704
0.943868
0.944032
0.944196
0.94436
0.944525
0.944689
0.944854
0.945018
0.945183
0.945348
0.945513
0.945678
0.945843
0.946008
0.946174
0.946339
0.946505
0.94667
0.946836
0.947001
0.947167
0.947333
0.947499
0.947664
0.94783
0.947996
0.948162
0.948327
0.948493
0.948659
0.948825
0.948991
0.949156
0.949322
0.949488
0.949653
0.949819
0.949984
0.95015
0.950315
0.95048
0.950645
0.95081
0.950975
0.95114
0.951305
0.951469
0.951634
0.951798
0.951962
0.952126
0.952285
0.952441
0.952596
0.952752
0.952907
0.953062
0.953217
0.953371
0.953525
0.953679
0.953833
0.953986
0.95414
0.954292
0.954445
0.954597
0.954749
0.954901
0.955052
0.955203
0.955354
0.955504
0.955654
0.955803
0.955953
0.956102
0.95625
0.956398
0.956546
0.956693
0.95684
0.956987
0.957133
0.957279
0.957424
0.957569
0.957713
0.957857
0.958001
0.958144
0.958287
0.958429
0.958571
0.958712
0.958853
0.958993
0.959133
0.959273
0.959411
0.95955
0.789033
0.934268
0.934412
0.934556
0.9347
0.934845
0.93499
0.935136
0.935281
0.935428
0.935574
0.935721
0.935868
0.936015
0.936163
0.936311
0.93646
0.936608
0.936758
0.936907
0.937056
0.937206
0.937357
0.937507
0.937658
0.937809
0.93796
0.938112
0.938264
0.938416
0.938568
0.938721
0.938874
0.939027
0.93918
0.939334
0.939488
0.939642
0.939796
0.939951
0.940105
0.94026
0.940415
0.940571
0.940726
0.940882
0.941038
0.941194
0.941351
0.941507
0.941664
0.941821
0.941978
0.942135
0.942292
0.94245
0.942607
0.942765
0.942923
0.943081
0.943239
0.943398
0.943556
0.943715
0.943873
0.944032
0.944191
0.94435
0.944509
0.944668
0.944827
0.944986
0.945145
0.945305
0.945464
0.945623
0.945783
0.945942
0.946102
0.946261
0.946421
0.946581
0.94674
0.9469
0.947059
0.947219
0.947379
0.947538
0.947698
0.947857
0.948017
0.948176
0.948335
0.948495
0.948654
0.948813
0.948972
0.949131
0.94929
0.949449
0.949608
0.949766
0.949925
0.950083
0.950241
0.950399
0.950557
0.950715
0.950873
0.951031
0.951188
0.951345
0.951502
0.951659
0.951816
0.951972
0.952129
0.95228
0.952428
0.952576
0.952724
0.952872
0.953019
0.953166
0.953313
0.95346
0.953606
0.953752
0.953897
0.954043
0.954188
0.954332
0.954477
0.954621
0.954764
0.954908
0.955051
0.955193
0.955335
0.955477
0.955619
0.95576
0.9559
0.956041
0.956181
0.95632
0.956459
0.956598
0.956736
0.956874
0.957011
0.957148
0.957285
0.957421
0.957557
0.957692
0.957827
0.957961
0.958095
0.958228
0.958361
0.958493
0.958625
0.958757
0.958888
0.959018
0.959148
0.782138
0.934784
0.934927
0.935069
0.935212
0.935355
0.935499
0.935643
0.935787
0.935931
0.936076
0.93622
0.936366
0.936511
0.936657
0.936803
0.936949
0.937096
0.937242
0.937389
0.937537
0.937684
0.937832
0.93798
0.938128
0.938276
0.938425
0.938574
0.938723
0.938872
0.939022
0.939171
0.939321
0.939471
0.939622
0.939772
0.939923
0.940074
0.940225
0.940376
0.940527
0.940678
0.94083
0.940982
0.941134
0.941286
0.941438
0.94159
0.941743
0.941895
0.942048
0.942201
0.942354
0.942507
0.94266
0.942813
0.942967
0.94312
0.943273
0.943427
0.943581
0.943734
0.943888
0.944042
0.944196
0.94435
0.944504
0.944657
0.944811
0.944965
0.94512
0.945274
0.945428
0.945582
0.945736
0.94589
0.946044
0.946198
0.946352
0.946506
0.94666
0.946814
0.946967
0.947121
0.947275
0.947429
0.947582
0.947736
0.947889
0.948043
0.948196
0.948349
0.948502
0.948655
0.948808
0.948961
0.949113
0.949266
0.949418
0.94957
0.949723
0.949874
0.950026
0.950178
0.950329
0.95048
0.950632
0.950782
0.950933
0.951084
0.951234
0.951384
0.951534
0.951683
0.951833
0.951982
0.952131
0.952275
0.952416
0.952557
0.952698
0.952839
0.952979
0.953119
0.953258
0.953397
0.953536
0.953675
0.953813
0.953951
0.954089
0.954226
0.954363
0.954499
0.954635
0.954771
0.954906
0.955041
0.955176
0.95531
0.955444
0.955577
0.95571
0.955843
0.955975
0.956107
0.956238
0.956369
0.9565
0.95663
0.956759
0.956889
0.957017
0.957146
0.957273
0.957401
0.957528
0.957654
0.95778
0.957906
0.958031
0.958155
0.958279
0.958403
0.958526
0.958648
0.95877
0.775519
0.935296
0.935437
0.935578
0.935719
0.93586
0.936002
0.936144
0.936286
0.936428
0.936571
0.936714
0.936857
0.937
0.937144
0.937287
0.937431
0.937576
0.93772
0.937865
0.938009
0.938154
0.938299
0.938445
0.93859
0.938736
0.938882
0.939028
0.939174
0.93932
0.939467
0.939613
0.93976
0.939907
0.940054
0.940202
0.940349
0.940496
0.940644
0.940792
0.940939
0.941087
0.941235
0.941384
0.941532
0.94168
0.941828
0.941977
0.942125
0.942274
0.942423
0.942571
0.94272
0.942869
0.943018
0.943167
0.943316
0.943465
0.943614
0.943763
0.943912
0.944061
0.94421
0.94436
0.944509
0.944658
0.944807
0.944956
0.945105
0.945254
0.945403
0.945552
0.945701
0.94585
0.945999
0.946147
0.946296
0.946445
0.946593
0.946742
0.94689
0.947038
0.947187
0.947335
0.947483
0.947631
0.947778
0.947926
0.948074
0.948221
0.948368
0.948516
0.948663
0.948809
0.948956
0.949103
0.949249
0.949395
0.949541
0.949687
0.949833
0.949978
0.950123
0.950268
0.950413
0.950558