/*--------------------------------*- C++ -*----------------------------------*\
| =========                 |                                                 |
| \\      /  F ield         | OpenFOAM: The Open Source CFD Toolbox           |
|  \\    /   O peration     | Version:  v1806                                 |
|   \\  /    A nd           | Web:      www.OpenFOAM.com                      |
|    \\/     M anipulation  |                                                 |
\*---------------------------------------------------------------------------*/
FoamFile
{
    version     2.0;
    format      ascii;
    class       volScalarField;
    location    "0";
    object      minTetVolume;
}
// * * * * * * * * * * * * * * * * * * * * * * * * * * * * * * * * * * * * * //

dimensions      [0 0 0 0 0 0 0];


internalField   nonuniform List<scalar> 
69504
(
4.13569e-07
4.42444e-07
4.73333e-07
5.06375e-07
5.41721e-07
5.7953e-07
6.19974e-07
6.63236e-07
7.09512e-07
7.59011e-07
8.11957e-07
8.68591e-07
9.29167e-07
9.9396e-07
1.06326e-06
1.13739e-06
1.21667e-06
1.30146e-06
1.39215e-06
1.48915e-06
1.59289e-06
1.70384e-06
1.82249e-06
1.94939e-06
2.0851e-06
2.23024e-06
2.38545e-06
2.55143e-06
2.72892e-06
2.91872e-06
3.12169e-06
3.33873e-06
3.5708e-06
3.81896e-06
4.08431e-06
4.36803e-06
4.67138e-06
4.99574e-06
5.34253e-06
5.7133e-06
6.10972e-06
6.53353e-06
6.98662e-06
7.47101e-06
7.98885e-06
8.54243e-06
9.13421e-06
9.76682e-06
1.04431e-05
1.11659e-05
1.19386e-05
1.27644e-05
1.36472e-05
1.45907e-05
1.55992e-05
1.6677e-05
1.7829e-05
1.90601e-05
2.03759e-05
2.1782e-05
2.32847e-05
2.48906e-05
2.66066e-05
2.84404e-05
3.04e-05
3.24939e-05
3.47313e-05
3.7122e-05
3.96765e-05
4.24059e-05
4.53221e-05
4.84378e-05
5.17668e-05
5.53234e-05
5.91232e-05
6.31828e-05
6.75198e-05
7.21531e-05
7.7103e-05
8.2391e-05
8.80401e-05
9.4075e-05
0.000100522
0.000107409
0.000114766
0.000122625
0.00013102
0.000139989
0.000149569
0.000159803
0.000170736
0.000182415
0.000194891
0.000208219
0.000222456
0.000237667
0.000253916
0.000271275
0.000289821
0.000309635
0.000330804
0.000353421
0.000377587
0.000403408
0.000430998
0.00046048
0.000491984
0.000525651
0.000561632
0.000600086
0.000641186
0.000685116
0.000732074
0.000782272
0.000835937
0.000892431
0.000952489
0.00101662
0.00108511
0.00115825
0.00123638
0.00131983
0.00140898
0.00150422
0.00160598
0.00171472
0.00183092
0.00195511
0.00208786
0.00222976
0.00238146
0.00254365
0.00271708
0.00290254
0.00310089
0.00331304
0.00353997
0.00378273
0.00404246
0.00432035
0.0046177
0.00493588
0.00527638
0.00564077
0.00603075
0.00644811
0.00689478
0.00737281
0.00788438
0.00843181
0.00901756
0.00964425
0.0103147
0.0110317
0.0117984
0.0126182
0.0134943
0.0144303
0.01543
0.0164973
0.017636
0.0188505
0.0201448
0.0215234
0.0229905
0.0245505
0.0262079
3.52297e-07
3.77134e-07
4.03723e-07
4.32185e-07
4.62654e-07
4.9527e-07
5.30184e-07
5.6756e-07
6.07568e-07
6.50396e-07
6.96241e-07
7.45315e-07
7.97847e-07
8.54079e-07
9.14271e-07
9.78702e-07
1.04767e-06
1.12149e-06
1.20051e-06
1.2851e-06
1.37563e-06
1.47254e-06
1.57627e-06
1.6873e-06
1.80613e-06
1.93333e-06
2.06947e-06
2.21518e-06
2.37114e-06
2.53806e-06
2.71671e-06
2.90792e-06
3.11256e-06
3.33158e-06
3.56598e-06
3.81684e-06
4.08532e-06
4.37264e-06
4.68012e-06
5.00919e-06
5.36134e-06
5.73819e-06
6.14147e-06
6.57303e-06
7.03483e-06
7.52901e-06
8.05781e-06
8.62366e-06
9.22913e-06
9.87701e-06
1.05702e-05
1.1312e-05
1.21057e-05
1.29549e-05
1.38634e-05
1.48356e-05
1.58757e-05
1.69885e-05
1.8179e-05
1.94528e-05
2.08155e-05
2.22734e-05
2.38331e-05
2.55017e-05
2.72867e-05
2.91963e-05
3.12392e-05
3.34245e-05
3.57623e-05
3.8263e-05
4.09381e-05
4.37997e-05
4.68608e-05
5.01351e-05
5.36377e-05
5.73842e-05
6.13917e-05
6.56784e-05
7.02637e-05
7.51684e-05
8.04146e-05
8.60261e-05
9.20285e-05
9.84489e-05
0.000105316
0.000112662
0.00012052
0.000128924
0.000137915
0.000147531
0.000157818
0.000168821
0.000180592
0.000193184
0.000206653
0.000221063
0.000236477
0.000252969
0.000270611
0.000289487
0.000309682
0.000331289
0.000354408
0.000379146
0.000405616
0.000433943
0.000464256
0.000496697
0.000531417
0.000568578
0.000608353
0.00065093
0.000696508
0.000745301
0.000797541
0.000852724
0.000911444
0.000974244
0.00104141
0.00111326
0.00119012
0.00127234
0.00136032
0.00145445
0.00155518
0.00166299
0.00177837
0.00190188
0.00203409
0.00217564
0.00232719
0.00248947
0.00266326
0.00284938
0.00304874
0.00326228
0.00349104
0.00373612
0.0039987
0.00428005
0.00458153
0.00490459
0.0052508
0.00562181
0.00601941
0.0064455
0.00690212
0.00739144
0.00791576
0.00847754
0.0090794
0.00972411
0.0104146
0.011154
0.0119455
0.0127927
0.013699
0.0146684
0.0157048
0.0168122
0.0179949
0.0192573
0.0206039
0.0220392
0.0235679
0.0251945
0.0269237
3.00747e-07
3.22157e-07
3.45092e-07
3.69662e-07
3.95982e-07
4.24178e-07
4.54383e-07
4.8674e-07
5.21403e-07
5.58536e-07
5.98316e-07
6.4093e-07
6.86581e-07
7.35485e-07
7.87875e-07
8.43997e-07
9.04119e-07
9.68525e-07
1.03752e-06
1.11143e-06
1.19061e-06
1.27543e-06
1.36629e-06
1.46363e-06
1.5679e-06
1.67959e-06
1.79925e-06
1.92743e-06
2.06474e-06
2.21182e-06
2.36939e-06
2.53817e-06
2.71897e-06
2.91265e-06
3.12011e-06
3.34235e-06
3.5804e-06
3.8354e-06
4.10855e-06
4.40114e-06
4.71455e-06
5.05026e-06
5.40985e-06
5.79503e-06
6.2076e-06
6.64952e-06
7.12286e-06
7.62987e-06
8.17292e-06
8.75457e-06
9.37758e-06
1.00449e-05
1.07596e-05
1.15251e-05
1.2345e-05
1.32231e-05
1.41636e-05
1.51709e-05
1.62498e-05
1.74053e-05
1.86428e-05
1.99682e-05
2.13877e-05
2.29079e-05
2.4536e-05
2.62797e-05
2.81472e-05
3.01472e-05
3.2289e-05
3.45829e-05
3.70395e-05
3.96703e-05
4.24879e-05
4.55053e-05
4.87367e-05
5.21974e-05
5.59036e-05
5.98727e-05
6.41234e-05
6.86756e-05
7.35509e-05
7.8772e-05
8.43637e-05
9.03522e-05
9.67658e-05
0.000103635
0.000110991
0.00011887
0.000127309
0.000136347
0.000146027
0.000156395
0.000167501
0.000179396
0.000192138
0.000205787
0.000220407
0.000236069
0.000252847
0.000270821
0.000290078
0.000310709
0.000332813
0.000356498
0.000381875
0.000409069
0.00043821
0.00046944
0.000502909
0.00053878
0.000577228
0.000618441
0.00066262
0.000709981
0.000760757
0.000814562
0.00087187
0.000933251
0.000998997
0.00106943
0.00114488
0.00122571
0.00131232
0.00140514
0.0015046
0.0016112
0.00172545
0.00184793
0.00197923
0.00212
0.00227093
0.00243278
0.00260634
0.00279249
0.00299214
0.0032063
0.00343603
0.00368248
0.00394689
0.00423057
0.00453495
0.00486154
0.00521198
0.00558799
0.00599146
0.00642437
0.00688886
0.00738719
0.00792179
0.00849524
0.00911027
0.00976981
0.0104769
0.0112349
0.0120471
0.0129172
0.013849
0.0148465
0.0159138
0.0170552
0.0182752
0.0195782
0.0209691
0.0224526
0.0240335
0.0257165
0.0274391
2.57299e-07
2.75794e-07
2.9562e-07
3.16874e-07
3.3966e-07
3.64086e-07
3.90272e-07
4.18345e-07
4.48441e-07
4.80706e-07
5.15295e-07
5.52378e-07
5.92134e-07
6.34755e-07
6.80449e-07
7.29437e-07
7.81956e-07
8.38263e-07
8.9863e-07
9.6335e-07
1.03274e-06
1.10713e-06
1.18688e-06
1.27239e-06
1.36407e-06
1.46236e-06
1.56774e-06
1.68072e-06
1.80185e-06
1.93172e-06
2.07096e-06
2.22024e-06
2.38029e-06
2.55189e-06
2.73587e-06
2.93312e-06
3.14461e-06
3.37135e-06
3.61445e-06
3.87509e-06
4.15453e-06
4.45414e-06
4.77536e-06
5.11975e-06
5.48899e-06
5.88487e-06
6.30931e-06
6.76437e-06
7.25225e-06
7.77534e-06
8.33615e-06
8.93742e-06
9.58207e-06
1.02732e-05
1.10142e-05
1.18087e-05
1.26604e-05
1.35736e-05
1.45527e-05
1.56024e-05
1.67278e-05
1.79343e-05
1.92279e-05
2.06148e-05
2.21018e-05
2.36959e-05
2.54051e-05
2.72376e-05
2.92022e-05
3.13086e-05
3.3567e-05
3.59882e-05
3.85842e-05
4.13674e-05
4.43515e-05
4.7551e-05
5.09814e-05
5.46593e-05
5.86028e-05
6.2831e-05
6.73646e-05
7.22255e-05
7.74376e-05
8.30262e-05
8.90187e-05
9.54443e-05
0.000102335
0.000109723
0.000117646
0.000126142
0.000135253
0.000145024
0.000155503
0.000166741
0.000178793
0.00019172
0.000205585
0.000220456
0.000236407
0.000253517
0.000271872
0.000291562
0.000312685
0.000335346
0.00035966
0.000385748
0.00041374
0.000443776
0.000476009
0.000510601
0.000547726
0.000587572
0.000630342
0.000676253
0.000725539
0.000777913
0.000833754
0.000893643
0.000957881
0.00102679
0.00110071
0.00118002
0.00126511
0.00135641
0.00145439
0.00155954
0.0016724
0.00179354
0.00192358
0.00206319
0.00221307
0.00237401
0.00254682
0.0027324
0.0029317
0.00314575
0.00337566
0.00362261
0.00388788
0.00417284
0.00447896
0.00480781
0.00516107
0.00554057
0.00594824
0.00638614
0.0068565
0.00736167
0.00790417
0.00848669
0.00911208
0.00978336
0.0105037
0.0112766
0.0121056
0.0129943
0.0139469
0.0149673
0.01606
0.0172293
0.0184799
0.0198165
0.0212439
0.0227671
0.024391
0.0261205
0.0277956
2.20613e-07
2.36623e-07
2.53799e-07
2.72225e-07
2.91992e-07
3.13199e-07
3.3595e-07
3.60358e-07
3.86544e-07
4.14638e-07
4.44779e-07
4.77117e-07
5.11812e-07
5.49036e-07
5.88974e-07
6.31825e-07
6.778e-07
7.27129e-07
7.80057e-07
8.36847e-07
8.9778e-07
9.6316e-07
1.03331e-06
1.10858e-06
1.18935e-06
1.27602e-06
1.36901e-06
1.4688e-06
1.57587e-06
1.69076e-06
1.81405e-06
1.94634e-06
2.0883e-06
2.24064e-06
2.40411e-06
2.57952e-06
2.76776e-06
2.96975e-06
3.18651e-06
3.41912e-06
3.66874e-06
3.93661e-06
4.22407e-06
4.53255e-06
4.86359e-06
5.21885e-06
5.60009e-06
6.00922e-06
6.44829e-06
6.91948e-06
7.42514e-06
7.96781e-06
8.55019e-06
9.17519e-06
9.84593e-06
1.05658e-05
1.13383e-05
1.21674e-05
1.30572e-05
1.40121e-05
1.50369e-05
1.61368e-05
1.73173e-05
1.85842e-05
1.99439e-05
2.14032e-05
2.29694e-05
2.46504e-05
2.64545e-05
2.83909e-05
3.04692e-05
3.26998e-05
3.5094e-05
3.76638e-05
4.0422e-05
4.33826e-05
4.65603e-05
4.99713e-05
5.36325e-05
5.75626e-05
6.17812e-05
6.63096e-05
7.11707e-05
7.6389e-05
8.19909e-05
8.80046e-05
9.44606e-05
0.000101392
0.000108833
0.000116822
0.000125399
0.000134608
0.000144496
0.000155114
0.000166514
0.000178756
0.000191903
0.00020602
0.000221182
0.000237465
0.000254953
0.000273737
0.000293912
0.000315584
0.000338865
0.000363874
0.000390743
0.00041961
0.000450626
0.000483953
0.000519765
0.000558249
0.000599609
0.000644061
0.000691839
0.000742744
0.000797071
0.000855414
0.000918074
0.000985376
0.00105767
0.00113533
0.00121876
0.00130839
0.00140471
0.0015082
0.00161942
0.00173896
0.00186743
0.00200553
0.00215398
0.00231357
0.00248514
0.00266962
0.00286797
0.00308126
0.00331061
0.00355726
0.0038225
0.00410775
0.00441452
0.00474444
0.00509923
0.00548078
0.00589107
0.00633224
0.00680658
0.00731652
0.00786467
0.00845379
0.00908683
0.00976692
0.0104974
0.0112816
0.0121235
0.0130267
0.0139955
0.0150339
0.0161466
0.017338
0.0186128
0.019976
0.0214325
0.0229872
0.0246452
0.0264115
0.0280406
1.89578e-07
2.03468e-07
2.1838e-07
2.34388e-07
2.51575e-07
2.70026e-07
2.89835e-07
3.11102e-07
3.33935e-07
3.5845e-07
3.8477e-07
4.13031e-07
4.43373e-07
4.75953e-07
5.10934e-07
5.48495e-07
5.88827e-07
6.32133e-07
6.78636e-07
7.2857e-07
7.8219e-07
8.39769e-07
9.016e-07
9.67998e-07
1.0393e-06
1.11587e-06
1.1981e-06
1.28641e-06
1.38124e-06
1.48309e-06
1.59247e-06
1.70994e-06
1.8361e-06
1.97159e-06
2.11711e-06
2.2734e-06
2.44126e-06
2.62155e-06
2.81518e-06
3.02316e-06
3.24654e-06
3.48647e-06
3.74418e-06
4.02098e-06
4.3183e-06
4.63765e-06
4.98069e-06
5.34915e-06
5.74494e-06
6.17009e-06
6.62677e-06
7.11733e-06
7.64429e-06
8.21035e-06
8.81843e-06
9.47165e-06
1.01734e-05
1.09272e-05
1.1737e-05
1.26069e-05
1.35415e-05
1.45455e-05
1.56241e-05
1.67829e-05
1.80278e-05
1.93653e-05
2.08022e-05
2.2346e-05
2.40047e-05
2.57867e-05
2.77014e-05
2.97585e-05
3.19688e-05
3.43438e-05
3.68955e-05
3.96374e-05
4.25837e-05
4.57495e-05
4.91513e-05
5.28069e-05
5.67351e-05
6.09565e-05
6.54929e-05
7.03681e-05
7.56074e-05
8.12382e-05
8.72899e-05
9.37941e-05
0.000100785
0.000108299
0.000116375
0.000125057
0.000134389
0.00014442
0.000155205
0.000166798
0.000179262
0.000192663
0.000207071
0.000222563
0.000239221
0.000257133
0.000276396
0.000297111
0.00031939
0.000343352
0.000369125
0.000396848
0.00042667
0.000458751
0.000493265
0.000530398
0.000570353
0.000613345
0.000659608
0.000709016
0.000761798
0.000818552
0.000879579
0.000945207
0.00101579
0.0010917
0.00117335
0.00126119
0.00135567
0.00145733
0.0015667
0.00168439
0.00181103
0.00194731
0.00209398
0.00225184
0.00242174
0.00260463
0.00280149
0.00301341
0.00324154
0.00348714
0.00375153
0.00403617
0.0043426
0.00467247
0.00502758
0.00540983
0.00582127
0.0062641
0.00674064
0.00725342
0.00780508
0.00839847
0.00903661
0.00972271
0.0104602
0.0112525
0.0121036
0.0130174
0.013998
0.0150497
0.0161772
0.0173851
0.0186781
0.0200612
0.0215395
0.0231179
0.0248015
0.0265815
0.0281805
1.63274e-07
1.75351e-07
1.88325e-07
2.02264e-07
2.17238e-07
2.33326e-07
2.50611e-07
2.69181e-07
2.89134e-07
3.10571e-07
3.33605e-07
3.58354e-07
3.84947e-07
4.13522e-07
4.44227e-07
4.77221e-07
5.12675e-07
5.50775e-07
5.91717e-07
6.35715e-07
6.82997e-07
7.33811e-07
7.8842e-07
8.47108e-07
9.10183e-07
9.77972e-07
1.05083e-06
1.12914e-06
1.2133e-06
1.30376e-06
1.40099e-06
1.5055e-06
1.61783e-06
1.73858e-06
1.86837e-06
2.00788e-06
2.15785e-06
2.31906e-06
2.49236e-06
2.67865e-06
2.87892e-06
3.09421e-06
3.32565e-06
3.57447e-06
3.84196e-06
4.12954e-06
4.43872e-06
4.77111e-06
5.12849e-06
5.51272e-06
5.92583e-06
6.36999e-06
6.84756e-06
7.36104e-06
7.91315e-06
8.5068e-06
9.14513e-06
9.8315e-06
1.05696e-05
1.13632e-05
1.22166e-05
1.31343e-05
1.41212e-05
1.51824e-05
1.63237e-05
1.7551e-05
1.88708e-05
2.02903e-05
2.18169e-05
2.34587e-05
2.52244e-05
2.71235e-05
2.91661e-05
3.1363e-05
3.3726e-05
3.62676e-05
3.90015e-05
4.19421e-05
4.51053e-05
4.8508e-05
5.21683e-05
5.6106e-05
6.0342e-05
6.48992e-05
6.9802e-05
7.50767e-05
8.07518e-05
8.68579e-05
9.34278e-05
0.000100497
0.000108104
0.000116289
0.000125098
0.000134577
0.000144778
0.000155758
0.000167574
0.000180293
0.000193983
0.000208719
0.000224582
0.000241658
0.000260042
0.000279835
0.000301145
0.000324091
0.000348799
0.000375405
0.000404058
0.000434916
0.000468151
0.000503949
0.000542509
0.000584047
0.000628796
0.000676689
0.000727905
0.000783038
0.000842391
0.000906293
0.000975096
0.00104918
0.00112896
0.00121487
0.0013074
0.00140706
0.00151441
0.00163004
0.0017546
0.0018888
0.00203339
0.00218916
0.00235701
0.00253787
0.00273275
0.00294276
0.00316907
0.00341293
0.00367573
0.00395892
0.00426408
0.0045929
0.0049472
0.00532892
0.00574015
0.00618312
0.00666022
0.00717401
0.00772719
0.00832267
0.00896352
0.009653
0.0103946
0.0111919
0.0120488
0.0129693
0.0139577
0.0150183
0.0161558
0.0173748
0.0186802
0.020077
0.0215702
0.0231649
0.0248661
0.026599
0.0282222
1.40937e-07
1.5146e-07
1.62774e-07
1.74936e-07
1.88012e-07
2.0207e-07
2.17184e-07
2.33435e-07
2.50907e-07
2.69694e-07
2.89895e-07
3.11616e-07
3.34972e-07
3.60087e-07
3.87095e-07
4.16138e-07
4.47371e-07
4.80959e-07
5.17081e-07
5.55929e-07
5.97709e-07
6.42643e-07
6.90972e-07
7.42952e-07
7.98861e-07
8.58996e-07
9.23679e-07
9.93255e-07
1.06809e-06
1.1486e-06
1.2352e-06
1.32836e-06
1.42857e-06
1.53638e-06
1.65236e-06
1.77714e-06
1.91137e-06
2.05579e-06
2.21117e-06
2.37834e-06
2.55821e-06
2.75173e-06
2.95996e-06
3.18401e-06
3.42508e-06
3.68449e-06
3.96362e-06
4.26398e-06
4.58719e-06
4.93501e-06
5.3093e-06
5.71209e-06
6.14556e-06
6.61206e-06
7.1141e-06
7.65442e-06
8.23593e-06
8.8618e-06
9.5354e-06
1.02604e-05
1.10408e-05
1.18807e-05
1.27848e-05
1.37579e-05
1.48054e-05
1.5933e-05
1.71468e-05
1.84534e-05
1.986e-05
2.13742e-05
2.30043e-05
2.47593e-05
2.66487e-05
2.86829e-05
3.0873e-05
3.3231e-05
3.57699e-05
3.85036e-05
4.14471e-05
4.46167e-05
4.80297e-05
5.17051e-05
5.56629e-05
5.99252e-05
6.45154e-05
6.9459e-05
7.47833e-05
8.05178e-05
8.66943e-05
9.33472e-05
0.000100513
0.000108233
0.000116548
0.000125507
0.000135158
0.000145555
0.000156758
0.000168828
0.000181834
0.000195849
0.000210951
0.000227226
0.000244766
0.00026367
0.000284045
0.000306006
0.00032968
0.0003552
0.000382711
0.000412372
0.000444352
0.000478833
0.000516015
0.00055611
0.000599351
0.000645721
0.000695359
0.000748851
0.000806501
0.000868637
0.00093561
0.0010078
0.00108563
0.00116953
0.00125998
0.00135751
0.00146268
0.00157608
0.00169836
0.00183024
0.00197247
0.00212586
0.00229131
0.00246975
0.00266222
0.00286983
0.00309375
0.00333529
0.0035958
0.00387679
0.00417985
0.00450668
0.00485914
0.00523919
0.00564895
0.00609068
0.00656682
0.00707994
0.00763279
0.00822832
0.00886965
0.00956008
0.0103031
0.0111024
0.011962
0.0128857
0.013878
0.0149433
0.0160862
0.0173114
0.0186238
0.0200284
0.0215302
0.0231343
0.0248456
0.0265325
0.0281727
1.21932e-07
1.31121e-07
1.41008e-07
1.51644e-07
1.63086e-07
1.75397e-07
1.88642e-07
2.02893e-07
2.18227e-07
2.34726e-07
2.5248e-07
2.71583e-07
2.9214e-07
3.14262e-07
3.38068e-07
3.63687e-07
3.91258e-07
4.20931e-07
4.52866e-07
4.87237e-07
5.24231e-07
5.64048e-07
6.06906e-07
6.53038e-07
7.02694e-07
7.56146e-07
8.13686e-07
8.75627e-07
9.42307e-07
1.01409e-06
1.09137e-06
1.17457e-06
1.26415e-06
1.36059e-06
1.46442e-06
1.57622e-06
1.6966e-06
1.82621e-06
1.96578e-06
2.11606e-06
2.27789e-06
2.45216e-06
2.63982e-06
2.84191e-06
3.05955e-06
3.29393e-06
3.54636e-06
3.81822e-06
4.11101e-06
4.42637e-06
4.76602e-06
5.13187e-06
5.52592e-06
5.95037e-06
6.40757e-06
6.90006e-06
7.43057e-06
8.00206e-06
8.61771e-06
9.28093e-06
9.99543e-06
1.07652e-05
1.15945e-05
1.24879e-05
1.34506e-05
1.44877e-05
1.56053e-05
1.68094e-05
1.81068e-05
1.95049e-05
2.10113e-05
2.26347e-05
2.43841e-05
2.62694e-05
2.8301e-05
3.04906e-05
3.28504e-05
3.53937e-05
3.81349e-05
4.10894e-05
4.4274e-05
4.77067e-05
5.14069e-05
5.53956e-05
5.96955e-05
6.43309e-05
6.93282e-05
7.47159e-05
8.05246e-05
8.67876e-05
9.35405e-05
0.000100822
0.000108674
0.000117141
0.000126272
0.000136119
0.00014674
0.000158194
0.000170549
0.000183876
0.000198251
0.000213758
0.000230488
0.000248537
0.00026801
0.00028902
0.000311691
0.000336156
0.000362556
0.000391047
0.000421797
0.000454986
0.000490809
0.000529479
0.000571223
0.000616072
0.000664126
0.000715967
0.000771895
0.000832236
0.000897342
0.000967594
0.0010434
0.00112521
0.0012135
0.00130879
0.00141164
0.00152266
0.00164249
0.00177184
0.00191148
0.00206222
0.00222496
0.00240065
0.00259032
0.00279509
0.00301615
0.0032548
0.00351243
0.00379053
0.00409072
0.00441472
0.0047644
0.00514174
0.00554888
0.00598811
0.00646187
0.00697278
0.00752361
0.00811732
0.00875707
0.00944619
0.0101882
0.0109868
0.011846
0.0127698
0.0137625
0.0148285
0.0159726
0.0171994
0.0185138
0.0199207
0.0214252
0.0230322
0.0241121
0.0247912
0.02536
1.05729e-07
1.13772e-07
1.2243e-07
1.31751e-07
1.41786e-07
1.5259e-07
1.64223e-07
1.76747e-07
1.90233e-07
2.04754e-07
2.2039e-07
2.37227e-07
2.55359e-07
2.74885e-07
2.95912e-07
3.18558e-07
3.42948e-07
3.69216e-07
3.97508e-07
4.2798e-07
4.60803e-07
4.96157e-07
5.3424e-07
5.75264e-07
6.19455e-07
6.67061e-07
7.18347e-07
7.73599e-07
8.33125e-07
8.97257e-07
9.66354e-07
1.0408e-06
1.12102e-06
1.20745e-06
1.30058e-06
1.40094e-06
1.50909e-06
1.62562e-06
1.75121e-06
1.88655e-06
2.03241e-06
2.18961e-06
2.35903e-06
2.54163e-06
2.73844e-06
2.95057e-06
3.17922e-06
3.42568e-06
3.69134e-06
3.97772e-06
4.28642e-06
4.61921e-06
4.97797e-06
5.36474e-06
5.78171e-06
6.23126e-06
6.71593e-06
7.2385e-06
7.80193e-06
8.40944e-06
9.06449e-06
9.77083e-06
1.05325e-05
1.13538e-05
1.22395e-05
1.31946e-05
1.42247e-05
1.53356e-05
1.65336e-05
1.78258e-05
1.92194e-05
2.07225e-05
2.23438e-05
2.40927e-05
2.59791e-05
2.80139e-05
3.0209e-05
3.25771e-05
3.51317e-05
3.78878e-05
4.08612e-05
4.40693e-05
4.75307e-05
5.12654e-05
5.52954e-05
5.96439e-05
6.43364e-05
6.94002e-05
7.48651e-05
8.07629e-05
8.71282e-05
9.39983e-05
0.000101414
0.000109418
0.000118058
0.000127384
0.000137453
0.000148323
0.000160058
0.000172729
0.00018641
0.000201183
0.000217136
0.000234362
0.000252967
0.00027306
0.000294761
0.000318202
0.000343522
0.000370873
0.000400421
0.000432343
0.000466832
0.000504097
0.000544362
0.000587696
0.000634171
0.000684357
0.000738553
0.000797083
0.000860296
0.000928571
0.00100232
0.00108198
0.00116803
0.00126099
0.00136142
0.00146992
0.00158714
0.0017138
0.00185065
0.00199851
0.00215828
0.00233091
0.00251744
0.00271899
0.00293675
0.00317203
0.00342622
0.00370082
0.00399746
0.00431788
0.00466393
0.00503762
0.00544111
0.00587667
0.00634679
0.00685407
0.00740132
0.00799151
0.00862779
0.00931352
0.0100522
0.0108477
0.0117037
0.0126245
0.0136143
0.0146776
0.015819
0.0170431
0.0183184
0.0188958
0.0194982
0.0201267
0.0207831
0.0213428
0.0218435
9.18891e-08
9.8943e-08
1.06542e-07
1.14728e-07
1.23548e-07
1.3305e-07
1.43288e-07
1.54319e-07
1.66204e-07
1.79012e-07
1.92812e-07
2.07683e-07
2.23709e-07
2.4098e-07
2.59592e-07
2.79652e-07
3.01271e-07
3.24573e-07
3.49689e-07
3.7676e-07
4.05941e-07
4.37396e-07
4.71304e-07
5.07857e-07
5.47263e-07
5.89746e-07
6.35547e-07
6.84928e-07
7.38169e-07
7.95574e-07
8.57471e-07
9.24213e-07
9.96182e-07
1.07379e-06
1.15748e-06
1.24773e-06
1.34506e-06
1.45003e-06
1.56324e-06
1.68534e-06
1.81703e-06
1.95907e-06
2.11229e-06
2.27755e-06
2.45582e-06
2.64812e-06
2.85557e-06
3.07936e-06
3.32079e-06
3.58125e-06
3.86226e-06
4.16544e-06
4.49256e-06
4.8455e-06
5.22633e-06
5.63726e-06
6.08067e-06
6.55915e-06
7.07549e-06
7.6327e-06
8.23403e-06
8.883e-06
9.58339e-06
1.03393e-05
1.11552e-05
1.20358e-05
1.29863e-05
1.40122e-05
1.51197e-05
1.63152e-05
1.76057e-05
1.89989e-05
2.05029e-05
2.21266e-05
2.38796e-05
2.57723e-05
2.78159e-05
3.00224e-05
3.24049e-05
3.49776e-05
3.77558e-05
4.07559e-05
4.39957e-05
4.74947e-05
5.12735e-05
5.53549e-05
5.97631e-05
6.45246e-05
6.96677e-05
7.52234e-05
8.1225e-05
8.77085e-05
9.4713e-05
0.000102281
0.000110457
0.000119291
0.000128837
0.000139152
0.000150299
0.000162345
0.000175364
0.000189434
0.000204642
0.00022108
0.000238849
0.000258057
0.000278822
0.000301271
0.000325542
0.000351785
0.000380161
0.000410845
0.000444027
0.000479911
0.000518719
0.00056055
0.000605456
0.000653992
0.000706455
0.000763165
0.000824469
0.000890743
0.000962392
0.00103986
0.00112361
0.00121417
0.00131209
0.00141798
0.00153247
0.00165628
0.00179017
0.00193496
0.00209153
0.00226085
0.00244394
0.00264193
0.00285601
0.00308749
0.00333776
0.00360833
0.00390081
0.00421695
0.00455862
0.00492782
0.00532671
0.00575758
0.00622289
0.00672528
0.00726754
0.00785264
0.00848375
0.00916421
0.00989756
0.0106875
0.011538
0.0124531
0.013437
0.0143355
0.0147769
0.0152366
0.0157158
0.0162155
0.0167368
0.0172811
0.0178495
0.0183109
0.0187497
8.00427e-08
8.62429e-08
9.29267e-08
1.00132e-07
1.079e-07
1.16275e-07
1.25305e-07
1.35041e-07
1.45539e-07
1.56858e-07
1.69064e-07
1.82227e-07
1.96421e-07
2.11729e-07
2.28237e-07
2.46042e-07
2.65246e-07
2.85958e-07
3.08299e-07
3.32398e-07
3.58393e-07
3.86434e-07
4.16685e-07
4.49319e-07
4.84527e-07
5.22512e-07
5.63494e-07
6.07712e-07
6.55423e-07
7.06904e-07
7.62456e-07
8.22401e-07
8.8709e-07
9.569e-07
1.03224e-06
1.11355e-06
1.2013e-06
1.29602e-06
1.39824e-06
1.50859e-06
1.62769e-06
1.75626e-06
1.89505e-06
2.04487e-06
2.20661e-06
2.38122e-06
2.56973e-06
2.77326e-06
2.993e-06
3.23026e-06
3.48644e-06
3.76306e-06
4.06175e-06
4.3843e-06
4.73261e-06
5.10876e-06
5.51497e-06
5.95368e-06
6.42749e-06
6.93922e-06
7.49194e-06
8.08893e-06
8.73377e-06
9.43031e-06
1.01827e-05
1.09955e-05
1.18736e-05
1.28221e-05
1.38469e-05
1.49541e-05
1.61503e-05
1.74427e-05
1.88392e-05
2.03481e-05
2.19786e-05
2.37405e-05
2.56445e-05
2.77021e-05
2.99257e-05
3.23289e-05
3.49263e-05
3.77336e-05
4.07679e-05
4.40477e-05
4.7593e-05
5.14254e-05
5.55684e-05
6.00473e-05
6.48894e-05
7.01246e-05
7.57849e-05
8.19051e-05
8.85229e-05
9.56789e-05
0.000103417
0.000111786
0.000120837
0.000130625
0.000141212
0.000152664
0.000165051
0.00017845
0.000192945
0.000208627
0.000225593
0.000243949
0.00026381
0.000285301
0.000308557
0.000333723
0.000360959
0.000390435
0.000422337
0.000456868
0.000494245
0.000534591
0.000577943
0.00062484
0.000675576
0.000730467
0.000789856
0.000854115
0.000923645
0.000998883
0.0010803
0.0011684
0.00126375
0.00136693
0.0014786
0.00159945
0.00173024
0.00187178
0.00202497
0.00219074
0.00237015
0.00256428
0.00277436
0.00300166
0.00324758
0.00351364
0.00380143
0.0041127
0.00444931
0.00481327
0.00520673
0.00563196
0.00609145
0.00658779
0.00712379
0.00770241
0.0083268
0.00900029
0.0097264
0.0105088
0.011197
0.0115342
0.011885
0.0122501
0.0126303
0.0130264
0.0134393
0.01387
0.0143194
0.0147886
0.0152788
0.0156596
0.0160425
6.98825e-08
7.53441e-08
8.12357e-08
8.75914e-08
9.44481e-08
1.01846e-07
1.09827e-07
1.18438e-07
1.27729e-07
1.37755e-07
1.48573e-07
1.60247e-07
1.72845e-07
1.86441e-07
2.01114e-07
2.1695e-07
2.34042e-07
2.52491e-07
2.72404e-07
2.93899e-07
3.17102e-07
3.4215e-07
3.6919e-07
3.98383e-07
4.299e-07
4.63928e-07
5.00669e-07
5.40339e-07
5.83174e-07
6.29429e-07
6.79378e-07
7.33317e-07
7.91568e-07
8.54478e-07
9.22421e-07
9.95804e-07
1.07506e-06
1.16067e-06
1.25315e-06
1.35303e-06
1.46094e-06
1.5775e-06
1.70343e-06
1.83947e-06
1.98645e-06
2.14524e-06
2.31682e-06
2.5022e-06
2.70251e-06
2.91896e-06
3.15285e-06
3.4056e-06
3.67874e-06
3.97392e-06
4.29293e-06
4.63771e-06
5.01035e-06
5.41312e-06
5.84846e-06
6.31902e-06
6.82768e-06
7.37753e-06
7.97192e-06
8.6145e-06
9.30918e-06
1.00602e-05
1.08722e-05
1.17501e-05
1.26994e-05
1.37258e-05
1.48356e-05
1.60358e-05
1.73336e-05
1.8737e-05
2.02548e-05
2.18963e-05
2.36716e-05
2.55917e-05
2.76685e-05
2.99149e-05
3.23448e-05
3.49733e-05
3.78167e-05
4.08928e-05
4.42206e-05
4.7821e-05
5.17164e-05
5.59312e-05
6.04917e-05
6.54264e-05
7.07664e-05
7.65451e-05
8.27988e-05
8.9567e-05
9.68921e-05
0.000104821
0.000113402
0.000122691
0.000132747
0.000143632
0.000155417
0.000168175
0.000181989
0.000196945
0.00021314
0.000230677
0.000249667
0.000270233
0.000292506
0.000316629
0.000342756
0.000371056
0.000401711
0.000434919
0.000470892
0.000509776
0.000551592
0.000596867
0.000645888
0.000698968
0.000756444
0.000818685
0.000886086
0.000959078
0.00103813
0.00112374
0.00121645
0.00131687
0.00142563
0.00154342
0.00167099
0.00180916
0.0019588
0.00212085
0.00229635
0.00248639
0.00269217
0.00291497
0.00315619
0.00341731
0.00369994
0.00400581
0.00433678
0.00469484
0.00508211
0.0055009
0.00595363
0.00644292
0.00697153
0.00754242
0.00815871
0.00873003
0.00898765
0.00925531
0.00953351
0.00982282
0.0101238
0.0104371
0.0107634
0.0111035
0.011458
0.0118278
0.0122137
0.0126168
0.013024
0.0133525
0.0136853
6.11507e-08
6.5972e-08
7.11765e-08
7.67946e-08
8.28596e-08
8.94073e-08
9.64765e-08
1.04109e-07
1.1235e-07
1.21248e-07
1.30856e-07
1.41232e-07
1.52436e-07
1.64536e-07
1.77604e-07
1.91717e-07
2.06961e-07
2.23425e-07
2.4121e-07
2.6042e-07
2.81172e-07
3.03589e-07
3.27807e-07
3.53971e-07
3.82239e-07
4.12781e-07
4.4578e-07
4.81437e-07
5.19967e-07
5.61602e-07
6.06595e-07
6.55218e-07
7.07767e-07
7.64559e-07
8.25941e-07
8.92284e-07
9.63994e-07
1.04151e-06
1.1253e-06
1.21587e-06
1.31379e-06
1.41964e-06
1.53408e-06
1.65781e-06
1.79159e-06
1.93623e-06
2.09262e-06
2.26174e-06
2.4446e-06
2.64236e-06
2.85621e-06
3.08748e-06
3.3376e-06
3.60811e-06
3.90068e-06
4.21714e-06
4.55943e-06
4.92967e-06
5.33017e-06
5.76342e-06
6.2321e-06
6.73913e-06
7.28766e-06
7.88113e-06
8.52322e-06
9.21795e-06
9.96965e-06
1.0783e-05
1.16632e-05
1.26156e-05
1.36463e-05
1.47617e-05
1.59689e-05
1.72754e-05
1.86894e-05
2.02199e-05
2.18765e-05
2.36696e-05
2.56106e-05
2.77119e-05
2.99865e-05
3.24491e-05
3.51152e-05
3.80017e-05
4.1127e-05
4.4511e-05
4.81752e-05
5.21429e-05
5.64397e-05
6.10927e-05
6.6132e-05
7.15896e-05
7.75007e-05
8.39032e-05
9.08381e-05
9.83501e-05
0.000106488
0.000115303
0.000124854
0.000135201
0.000146411
0.000158558
0.00017172
0.000185982
0.000201438
0.000218187
0.000236339
0.000256013
0.000277336
0.000300448
0.000325501
0.000352658
0.000382098
0.000414013
0.000448614
0.00048606
0.000526366
0.000570039
0.000617363
0.000668646
0.00072422
0.000784446
0.000849716
0.000920454
0.00099712
0.00108021
0.00117027
0.00126787
0.00137366
0.00148832
0.00161259
0.00174726
0.00189322
0.0020514
0.00222281
0.00240855
0.00260979
0.00282782
0.00306402
0.00331985
0.00359692
0.00389693
0.00422174
0.00457331
0.00495377
0.00536538
0.00581056
0.00629189
0.00679511
0.00699199
0.00719629
0.00740836
0.0076286
0.00785744
0.00809532
0.00834272
0.00860014
0.00886813
0.00914725
0.00943814
0.00974144
0.0100579
0.0103882
0.0107332
0.01107
0.0113541
0.0116421
5.36313e-08
5.78964e-08
6.25035e-08
6.74802e-08
7.28563e-08
7.86641e-08
8.49386e-08
9.17175e-08
9.90418e-08
1.06956e-07
1.15507e-07
1.24747e-07
1.34732e-07
1.45523e-07
1.57184e-07
1.69788e-07
1.8341e-07
1.98133e-07
2.14047e-07
2.31249e-07
2.49844e-07
2.69946e-07
2.91678e-07
3.15172e-07
3.40573e-07
3.68037e-07
3.97732e-07
4.29841e-07
4.6456e-07
5.02106e-07
5.42707e-07
5.86616e-07
6.34104e-07
6.85463e-07
7.41012e-07
8.01096e-07
8.66086e-07
9.36386e-07
1.01243e-06
1.0947e-06
1.1837e-06
1.27998e-06
1.38415e-06
1.49685e-06
1.6188e-06
1.75075e-06
1.89353e-06
2.04802e-06
2.21521e-06
2.39615e-06
2.59195e-06
2.80387e-06
3.03322e-06
3.28146e-06
3.55015e-06
3.84098e-06
4.15579e-06
4.49657e-06
4.86548e-06
5.26485e-06
5.6972e-06
6.16529e-06
6.67208e-06
7.22079e-06
7.81492e-06
8.45824e-06
9.15485e-06
9.90918e-06
1.07261e-05
1.16107e-05
1.25688e-05
1.36064e-05
1.47302e-05
1.59474e-05
1.72658e-05
1.86939e-05
2.02409e-05
2.19167e-05
2.3732e-05
2.56987e-05
2.78294e-05
3.01379e-05
3.26391e-05
3.53491e-05
3.82856e-05
4.14677e-05
4.49158e-05
4.86526e-05
5.27023e-05
5.70912e-05
6.1848e-05
6.70038e-05
7.25922e-05
7.86498e-05
8.52163e-05
9.23348e-05
0.000100052
0.000108418
0.000117489
0.000127324
0.000137988
0.000149552
0.000162091
0.000175689
0.000190435
0.000206428
0.000223774
0.000242588
0.000262994
0.00028513
0.000309141
0.000335189
0.000363447
0.000394104
0.000427365
0.000463403
0.000502224
0.000544321
0.000589971
0.000639476
0.000693164
0.000751388
0.000814535
0.00088302
0.000957297
0.00103786
0.00112523
0.00121999
0.00132277
0.00143424
0.00155513
0.00168624
0.00182841
0.00198259
0.00214977
0.00233103
0.00252754
0.00274057
0.00297148
0.00322172
0.00349288
0.00378665
0.00410485
0.00444945
0.00482252
0.00522632
0.00543102
0.00558702
0.00574877
0.00591654
0.00609064
0.00627139
0.00645912
0.00665418
0.00685697
0.00706789
0.00728736
0.00751586
0.00775389
0.00800195
0.00826064
0.00853054
0.0088123
0.00910663
0.00938526
0.00963008
0.00987864
4.71424e-08
5.09236e-08
5.50106e-08
5.94283e-08
6.42036e-08
6.93659e-08
7.49466e-08
8.09799e-08
8.75029e-08
9.45556e-08
1.02181e-07
1.10427e-07
1.19343e-07
1.28986e-07
1.39413e-07
1.5069e-07
1.62887e-07
1.76078e-07
1.90347e-07