/*--------------------------------*- C++ -*----------------------------------*\
| =========                 |                                                 |
| \\      /  F ield         | OpenFOAM: The Open Source CFD Toolbox           |
|  \\    /   O peration     | Version:  v1806                                 |
|   \\  /    A nd           | Web:      www.OpenFOAM.com                      |
|    \\/     M anipulation  |                                                 |
\*---------------------------------------------------------------------------*/
FoamFile
{
    version     2.0;
    format      ascii;
    class       volScalarField;
    location    "0";
    object      nonOrthoAngle;
}
// * * * * * * * * * * * * * * * * * * * * * * * * * * * * * * * * * * * * * //

dimensions      [0 0 0 0 0 0 0];


internalField   nonuniform List<scalar> 
69504
(
6.61678
5.04832
5.11912
5.1907
5.26306
5.33618
5.41009
5.48478
5.56025
5.63652
5.71354
5.79138
5.86999
5.94939
6.02956
6.11054
6.19229
6.27483
6.35814
6.44224
6.52711
6.61275
6.69917
6.78635
6.8743
6.963
7.05245
7.14266
7.23359
7.32527
7.41767
7.51079
7.60461
7.69914
7.79436
7.89025
7.98682
8.08404
8.18191
8.2804
8.37952
8.47923
8.57952
8.68039
8.7818
8.88376
8.98622
9.08917
9.1926
9.29647
9.40077
9.50546
9.61054
9.71596
9.8217
9.92774
10.034
10.1406
10.2473
10.3542
10.4612
10.5683
10.6754
10.7826
10.8897
10.9968
11.1037
11.2105
11.317
11.4233
11.5293
11.6349
11.7401
11.8449
11.9491
12.0526
12.1556
12.2578
12.3592
12.4597
12.5594
12.658
12.7555
12.8519
12.947
13.0408
13.1332
13.224
13.3133
13.4009
13.4867
13.5706
13.6525
13.7323
13.81
13.8852
13.9581
14.0284
14.096
14.1608
14.2226
14.2814
14.3369
14.3891
14.4377
14.4827
14.5239
14.561
14.5941
14.6227
14.6469
14.6664
14.681
14.6906
14.6949
14.6949
14.6937
14.6868
14.674
14.655
14.6297
14.5978
14.5591
14.5132
14.4599
14.399
14.3302
14.2531
14.1676
14.0732
13.9697
13.8568
13.734
13.6011
13.4577
13.3034
13.1379
12.9608
12.7716
12.57
12.3555
12.1277
11.8862
11.6304
11.3599
11.0743
10.773
10.4555
10.1213
9.76993
9.40076
9.01327
8.6069
8.1811
7.73528
7.26888
6.78132
6.27202
5.7404
5.18588
4.60792
4.00594
3.37941
2.7278
2.05064
1.34743
0.617762
6.33459
4.96454
5.03465
5.10552
5.17718
5.24961
5.32282
5.39681
5.47158
5.54714
5.62348
5.70061
5.77853
5.85723
5.93672
6.01699
6.09805
6.17989
6.26251
6.34592
6.4301
6.51506
6.6008
6.6873
6.77456
6.86259
6.95137
7.0409
7.13117
7.22219
7.31393
7.40639
7.49957
7.59345
7.68803
7.7833
7.87924
7.97584
8.07309
8.17097
8.26949
8.3686
8.46832
8.56861
8.66946
8.77085
8.87276
8.97518
9.07807
9.18143
9.28522
9.38943
9.49402
9.59898
9.70427
9.80986
9.91573
10.0218
10.1282
10.2347
10.3413
10.4481
10.5549
10.6618
10.7686
10.8754
10.9821
11.0887
11.195
11.3012
11.407
11.5125
11.6176
11.7223
11.8264
11.93
12.0329
12.1352
12.2367
12.3373
12.4371
12.5359
12.6336
12.7302
12.8256
12.9198
13.0125
13.1038
13.1935
13.2816
13.368
13.4525
13.535
13.6156
13.6939
13.77
13.8437
13.9149
13.9834
14.0492
14.1122
14.1721
14.2288
14.2823
14.3323
14.3787
14.4213
14.4601
14.4947
14.5251
14.5511
14.5725
14.5891
14.6007
14.6072
14.6082
14.6037
14.5933
14.577
14.5543
14.5252
14.4893
14.4464
14.3963
14.3386
14.2732
14.1997
14.1178
14.0272
13.9276
13.8187
13.7002
13.5717
13.4329
13.2834
13.1228
12.9507
12.7669
12.5707
12.3663
12.1504
11.9211
11.6781
11.4208
11.1488
10.8616
10.5586
10.2395
9.90363
9.55049
9.17956
8.79027
8.38207
7.9544
7.50669
7.03836
6.54883
6.03753
5.50389
4.94732
4.36727
3.76319
3.13453
2.48079
1.80146
1.09608
0.364228
6.0642
4.83818
4.90798
4.97856
5.04991
5.12204
5.19494
5.26863
5.3431
5.41834
5.49438
5.5712
5.6488
5.72719
5.80637
5.88633
5.96707
6.0486
6.13091
6.214
6.29786
6.3825
6.46791
6.55409
6.64104
6.72874
6.8172
6.9064
6.99635
7.08704
7.17845
7.27058
7.36343
7.45698
7.55123
7.64616
7.74176
7.83803
7.93494
8.03249
8.13066
8.22944
8.32881
8.42876
8.52926
8.63031
8.73187
8.83394
8.93648
9.03949
9.14293
9.24678
9.35101
9.45561
9.56054
9.66577
9.77127
9.87702
9.98298
10.0891
10.1954
10.3018
10.4082
10.5147
10.6212
10.7276
10.8339
10.94
11.046
11.1518
11.2572
11.3623
11.467
11.5712
11.675
11.7781
11.8807
11.9825
12.0835
12.1838
12.2831
12.3814
12.4787
12.5749
12.6699
12.7635
12.8558
12.9466
13.0359
13.1235
13.2093
13.2933
13.3754
13.4554
13.5332
13.6087
13.6819
13.7525
13.8205
13.8858
13.9481
14.0074
14.0636
14.1164
14.1658
14.2116
14.2536
14.2917
14.3257
14.3554
14.3807
14.4014
14.4173
14.4282
14.4338
14.4341
14.4288
14.4177
14.4005
14.377
14.347
14.3102
14.2665
14.2154
14.1569
14.0905
14.016
13.9331
13.8415
13.7409
13.6309
13.5113
13.3817
13.2418
13.0911
12.9293
12.756
12.5709
12.3791
12.1749
11.9578
11.7273
11.4829
11.2243
10.951
10.6624
10.3581
10.0375
9.70016
9.34553
8.97307
8.58223
8.17246
7.74318
7.29382
6.82382
6.3326
5.81958
5.28418
4.72584
4.14399
3.53809
2.9076
2.25201
1.57082
0.863579
0.360511
5.80479
4.71485
4.78437
4.85466
4.92572
4.99755
5.07017
5.14356
5.21773
5.29269
5.36842
5.44495
5.52226
5.60035
5.67923
5.75889
5.83933
5.92056
6.00257
6.08536
6.16892
6.25326
6.33837
6.42425
6.51089
6.59828
6.68643
6.77534
6.86498
6.95536
7.04646
7.13829
7.23083
7.32407
7.41801
7.51263
7.60792
7.70387
7.80047
7.89771
7.99557
8.09403
8.19309
8.29272
8.3929
8.49363
8.59488
8.69663
8.79885
8.90154
9.00466
9.10818
9.2121
9.31637
9.42097
9.52588
9.63106
9.73647
9.8421
9.94791
10.0539
10.1599
10.266
10.3722
10.4783
10.5843
10.6903
10.7961
10.9018
11.0071
11.1122
11.217
11.3213
11.4252
11.5286
11.6314
11.7335
11.835
11.9357
12.0355
12.1345
12.2324
12.3294
12.4251
12.5197
12.6129
12.7048
12.7952
12.8841
12.9713
13.0567
13.1403
13.2219
13.3014
13.3788
13.4539
13.5266
13.5968
13.6643
13.7291
13.7909
13.8497
13.9054
13.9577
14.0066
14.0518
14.0933
14.1308
14.1643
14.1934
14.2181
14.2382
14.2535
14.2637
14.2688
14.2684
14.2624
14.2506
14.2327
14.2086
14.1778
14.1404
14.0958
14.044
13.9847
13.9175
13.8421
13.7584
13.6659
13.5644
13.4536
13.3331
13.2025
13.0616
12.9099
12.7471
12.5734
12.3928
12.2001
11.9949
11.7767
11.5451
11.2997
11.04
10.7655
10.4757
10.1702
9.84838
9.50979
9.15388
8.7801
8.38792
7.97678
7.5461
7.09532
6.62388
6.13118
5.61667
5.07975
4.51988
3.93647
3.329
2.69693
2.03973
1.35694
0.648077
0.570688
5.55558
4.59446
4.6637
4.73371
4.80449
4.87604
4.94838
5.02149
5.09538
5.17006
5.24552
5.32176
5.39879
5.4766
5.55519
5.63457
5.71473
5.79568
5.8774
5.95991
6.04319
6.12724
6.21207
6.29766
6.38401
6.47113
6.55899
6.64761
6.73697
6.82706
6.91788
7.00942
7.10167
7.19463
7.28828
7.38261
7.47762
7.57328
7.6696
7.76655
7.86412
7.9623
8.06107
8.16041
8.26031
8.36075
8.46171
8.56317
8.6651
8.7675
8.87033
8.97357
9.07719
9.18117
9.28548
9.3901
9.49498
9.60011
9.70545
9.81096
9.91661
10.0224
10.1282
10.234
10.3398
10.4456
10.5513
10.6568
10.7621
10.8672
10.972
11.0764
11.1805
11.2841
11.3871
11.4896
11.5914
11.6926
11.793
11.8925
11.9911
12.0888
12.1853
12.2808
12.375
12.4679
12.5595
12.6495
12.738
12.8248
12.9099
12.9931
13.0744
13.1536
13.2306
13.3053
13.3776
13.4474
13.5145
13.5789
13.6403
13.6987
13.7539
13.8058
13.8543
13.8991
13.9401
13.9772
14.0101
14.0388
14.063
14.0826
14.0974
14.1071
14.1116
14.1107
14.1042
14.0918
14.0733
14.0485
14.0172
13.9791
13.934
13.8815
13.8215
13.7536
13.6776
13.5931
13.4999
13.3977
13.2861
13.1647
13.0334
12.8916
12.7391
12.5763
12.4067
12.2252
12.0317
11.8256
11.6065
11.374
11.1276
10.8669
10.5914
10.3006
9.99405
9.67119
9.3315
8.97447
8.59956
8.20622
7.79389
7.362
6.90999
6.43729
5.94331
5.4275
4.88927
4.32805
3.7433
3.13446
2.501
1.84242
1.15822
0.447965
0.765858
5.31593
4.4769
4.54587
4.61562
4.68613
4.75742
4.82949
4.90234
4.97596
5.05037
5.12557
5.20154
5.2783
5.35585
5.43417
5.51329
5.59318
5.67386
5.75532
5.83756
5.92057
6.00436
6.08892
6.17425
6.26034
6.34719
6.43479
6.52314
6.61223
6.70206
6.79262
6.8839
6.97589
7.06858
7.16197
7.25604
7.35078
7.44619
7.54224
7.63893
7.73624
7.83416
7.93267
8.03175
8.13139
8.23157
8.33227
8.43347
8.53515
8.63729
8.73986
8.84284
8.94621
9.04993
9.15399
9.25835
9.36297
9.46784
9.57292
9.67818
9.78357
9.88907
9.99463
10.1002
10.2058
10.3113
10.4167
10.522
10.627
10.7319
10.8364
10.9406
11.0443
11.1477
11.2505
11.3527
11.4543
11.5551
11.6552
11.7545
11.8528
11.9502
12.0465
12.1417
12.2356
12.3283
12.4195
12.5093
12.5975
12.684
12.7688
12.8517
12.9327
13.0116
13.0883
13.1627
13.2347
13.3041
13.3709
13.435
13.4961
13.5541
13.609
13.6606
13.7086
13.753
13.7937
13.8304
13.863
13.8912
13.9151
13.9342
13.9486
13.9579
13.962
13.9606
13.9536
13.9407
13.9218
13.8965
13.8647
13.8261
13.7804
13.7274
13.6668
13.5983
13.5217
13.4367
13.3429
13.24
13.1277
13.0057
12.8737
12.7312
12.5788
12.4198
12.2494
12.0673
11.873
11.6661
11.4463
11.213
10.9658
10.7043
10.4279
10.1363
9.82878
9.50499
9.16437
8.80638
8.43048
8.03612
7.62276
7.18982
6.73674
6.26294
5.76786
5.25091
4.71153
4.14914
3.56321
2.95318
2.31852
1.65872
0.973308
0.476136
0.947403
5.08524
4.36208
4.4308
4.50029
4.57056
4.64159
4.71341
4.78601
4.85938
4.93354
5.00848
5.08421
5.16072
5.23801
5.31609
5.39496
5.4746
5.55504
5.63625
5.71824
5.80101
5.88455
5.96886
6.05394
6.13979
6.2264
6.31375
6.40186
6.49071
6.5803
6.67061
6.76165
6.8534
6.94585
7.03901
7.13284
7.22734
7.32251
7.41833
7.51478
7.61186
7.70954
7.80782
7.90667
8.00608
8.10603
8.2065
8.30747
8.40892
8.51083
8.61318
8.71593
8.81907
8.92257
9.02641
9.13054
9.23495
9.33959
9.44445
9.54948
9.65466
9.75993
9.86527
9.97064
10.076
10.1813
10.2865
10.3915
10.4964
10.601
10.7053
10.8092
10.9128
11.0159
11.1185
11.2205
11.3218
11.4225
11.5224
11.6214
11.7196
11.8167
11.9128
12.0077
12.1014
12.1938
12.2849
12.3744
12.4624
12.5487
12.6332
12.7159
12.7966
12.8752
12.9517
13.0259
13.0976
13.1668
13.2333
13.2971
13.3579
13.4157
13.4703
13.5216
13.5694
13.6135
13.6538
13.6902
13.7225
13.7504
13.7739
13.7928
13.8068
13.8157
13.8194
13.8177
13.8103
13.7971
13.7778
13.7521
13.7198
13.6808
13.6347
13.5812
13.5202
13.4512
13.3741
13.2886
13.1942
13.0908
12.978
12.8555
12.7229
12.5802
12.4316
12.272
12.1011
11.9183
11.7234
11.5159
11.2954
11.0614
10.8136
10.5513
10.2742
9.98182
9.67358
9.349
9.00755
8.64873
8.27197
7.87674
7.46248
7.02862
6.57461
6.09985
5.60379
5.08586
4.54547
3.98207
3.3951
2.78402
2.1483
1.48745
0.80097
0.650609
1.11654
4.86303
4.24992
4.3184
4.38766
4.45769
4.52849
4.60007
4.67243
4.74557
4.81949
4.8942
4.96969
5.04597
5.12303
5.20088
5.27951
5.35893
5.43913
5.52011
5.60187
5.68441
5.76773
5.85182
5.93667
6.02229
6.10868
6.19581
6.2837
6.37233
6.4617
6.55179
6.64261
6.73415
6.82638
6.91932
7.01294
7.10723
7.20219
7.2978
7.39404
7.49091
7.58839
7.68646
7.7851
7.88431
7.98405
8.08433
8.1851
8.28635
8.38806
8.49021
8.59277
8.69572
8.79902
8.90266
9.0066
9.11082
9.21528
9.31995
9.42479
9.52978
9.63487
9.74003
9.84521
9.95038
10.0555
10.1605
10.2654
10.37
10.4745
10.5786
10.6824
10.7858
10.8887
10.9911
11.0929
11.1941
11.2946
11.3943
11.4931
11.5911
11.6881
11.784
11.8787
11.9723
12.0645
12.1553
12.2447
12.3325
12.4186
12.503
12.5854
12.666
12.7444
12.8207
12.8946
12.9662
13.0352
13.1015
13.1651
13.2257
13.2833
13.3376
13.3887
13.4362
13.4801
13.5202
13.5564
13.5884
13.6161
13.6393
13.6579
13.6716
13.6803
13.6837
13.6817
13.674
13.6605
13.6408
13.6148
13.5823
13.5429
13.4964
13.4426
13.3811
13.3118
13.2343
13.1483
13.0536
12.9497
12.8365
12.7135
12.5804
12.4417
12.2926
12.1325
11.9611
11.7778
11.5824
11.3743
11.1533
10.9187
10.6703
10.4074
10.1297
9.83663
9.52771
9.20244
8.8603
8.50075
8.12325
7.72725
7.31221
6.87756
6.42272
5.94713
5.45022
4.93142
4.39015
3.82585
3.23797
2.62598
1.98934
1.32754
0.64013
0.813321
1.27434
4.64883
4.14035
4.20861
4.27764
4.34745
4.41803
4.48939
4.56153
4.63445
4.70815
4.78264
4.85792
4.93398
5.01083
5.08846
5.16688
5.24609
5.32608
5.40685
5.4884
5.57073
5.65384
5.73773
5.82238
5.90779
5.99397
6.08091
6.16859
6.25703
6.34619
6.4361
6.52672
6.61806
6.71011
6.80285
6.89628
6.99039
7.08516
7.18058
7.27664
7.37332
7.47062
7.56851
7.66698
7.76601
7.86558
7.96568
8.06628
8.16736
8.2689
8.37088
8.47328
8.57606
8.6792
8.78268
8.88646
8.99052
9.09482
9.19933
9.30403
9.40886
9.5138
9.6188
9.72384
9.82886
9.93383
10.0387
10.1434
10.2479
10.3522
10.4562
10.5599
10.6631
10.7659
10.8681
10.9698
11.0709
11.1712
11.2708
11.3695
11.4673
11.5642
11.6599
11.7546
11.848
11.9401
12.0308
12.12
12.2076
12.2936
12.3778
12.4602
12.5406
12.6189
12.695
12.7688
12.8402
12.909
12.9752
13.0386
13.0991
13.1565
13.2107
13.2616
13.309
13.3527
13.3926
13.4286
13.4604
13.4879
13.511
13.5293
13.5428
13.5513
13.5545
13.5523
13.5444
13.5306
13.5107
13.4844
13.4516
13.4119
13.3651
13.311
13.2493
13.1796
13.1018
13.0155
12.9204
12.8162
12.7025
12.5792
12.4495
12.3107
12.1612
12.0008
11.8289
11.6452
11.4493
11.2408
11.0193
10.7843
10.5353
10.2719
9.99365
9.70002
9.39053
9.06467
8.72191
8.36173
7.98359
7.58693
7.17121
6.73585
6.2803
5.80398
5.30632
4.78675
4.24471
3.67962
3.09095
2.47814
1.84068
1.17807
0.489831
0.965273
1.42175
4.44225
4.0333
4.10135
4.17018
4.23978
4.31015
4.38131
4.45325
4.52597
4.59947
4.67376
4.74883
4.8247
4.90135
4.97879
5.05701
5.13602
5.21582
5.2964
5.37777
5.45991
5.54283
5.62653
5.711
5.79623
5.88223
5.96898
6.05649
6.14474
6.23374
6.32347
6.41392
6.50509
6.59697
6.68954
6.78281
6.87675
6.97136
7.06661
7.16252
7.25905
7.35619
7.45392
7.55224
7.65112
7.75054
7.85049
7.95095
8.05189
8.15329
8.25513
8.35738
8.46003
8.56304
8.66638
8.77004
8.87397
8.97814
9.08253
9.1871
9.29181
9.39663
9.50152
9.60644
9.71134
9.81619
9.92095
10.0256
10.13
10.2342
10.338
10.4416
10.5447
10.6474
10.7496
10.8511
10.9521
11.0523
11.1518
11.2504
11.3482
11.4449
11.5406
11.6351
11.7284
11.8204
11.911
12.0002
12.0877
12.1736
12.2577
12.34
12.4203
12.4985
12.5745
12.6482
12.7195
12.7882
12.8543
12.9176
12.978
13.0353
13.0894
13.1401
13.1874
13.231
13.2708
13.3066
13.3383
13.3657
13.3886
13.4068
13.4201
13.4284
13.4315
13.4291
13.421
13.407
13.3869
13.3604
13.3274
13.2875
13.2405
13.1862
13.1242
13.0543
12.9762
12.8896
12.7942
12.6898
12.5758
12.4547
12.3259
12.1868
12.037
11.8762
11.704
11.52
11.3237
11.1149
10.8929
10.6575
10.4081
10.1442
9.86552
9.57141
9.26143
8.93505
8.59177
8.23104
7.85233
7.4551
7.03878
6.60281
6.14663
5.66967
5.17136
4.65112
4.10839
3.54261
2.95323
2.33971
1.70152
1.03818
0.365831
1.10735
1.55964
4.24297
3.92872
3.99658
4.06521
4.13462
4.20481
4.27578
4.34753
4.42006
4.49338
4.56749
4.64238
4.71807
4.79454
4.8718
4.94985
5.02869
5.10831
5.18872
5.26991
5.35189
5.43464
5.51817
5.60248
5.68755
5.77339
5.85998
5.94734
6.03543
6.12427
6.21385
6.30415
6.39517
6.4869
6.57934
6.67246
6.76626
6.86073
6.95585
7.05162
7.14801
7.24502
7.34263
7.44082
7.53958
7.63888
7.73871
7.83904
7.93987
8.04115
8.14288
8.24503
8.34757
8.45047
8.55371
8.65726
8.76109
8.86517
8.96946
9.07393
9.17855
9.28328
9.38808
9.49292
9.59774
9.70251
9.80718
9.91171
10.0161
10.1202
10.224
10.3274
10.4305
10.5331
10.6352
10.7367
10.8376
10.9378
11.0372
11.1358
11.2334
11.3301
11.4257
11.5202
11.6134
11.7054
11.7959
11.885
11.9725
12.0583
12.1424
12.2246
12.3048
12.383
12.4589
12.5326
12.6038
12.6725
12.7385
12.8017
12.862
12.9193
12.9733
13.024
13.0712
13.1147
13.1544
13.1901
13.2217
13.249
13.2718
13.2899
13.3032
13.3114
13.3143
13.3118
13.3036
13.2895
13.2692
13.2426
13.2094
13.1694
13.1222
13.0677
13.0055
12.9354
12.8572
12.7704
12.6748
12.57
12.457
12.338
12.209
12.0696
11.9196
11.7585
11.586
11.4017
11.2051
10.9959
10.7737
10.5379
10.2881
10.0239
9.74477
9.45026
9.13985
8.81303
8.46929
8.10809
7.72889
7.33115
6.91431
6.47781
6.02108
5.54355
5.04466
4.52383
3.9805
3.4141
2.82409
2.20994
1.57112
0.907131
0.498182
1.24035
1.68876
4.05065
3.82655
3.89423
3.96269
4.03193
4.10194
4.17274
4.24432
4.31669
4.38984
4.46378
4.53852
4.61404
4.69035
4.76745
4.84534
4.92402
5.00349
5.08375
5.16479
5.24662
5.32923
5.41261
5.49677
5.58171
5.6674
5.75386
5.84108
5.92904
6.01775
6.1072
6.19737
6.28827
6.37987
6.47218
6.56518
6.65887
6.75322
6.84823
6.94389
7.04018
7.13708
7.23458
7.33267
7.43132
7.53053
7.63026
7.73051
7.83124
7.93244
8.03408
8.13614
8.2386
8.34142
8.44458
8.54806
8.65182
8.75582
8.86005
8.96445
9.06901
9.17368
9.27842
9.38319
9.48796
9.59268
9.6973
9.80178
9.90607
10.0101
10.1139
10.2173
10.3203
10.4229
10.525
10.6265
10.7273
10.8275
10.9268
11.0254
11.123
11.2197
11.3152
11.4097
11.5029
11.5948
11.6854
11.7744
11.8619
11.9477
12.0318
12.1139
12.1941
12.2723
12.3482
12.4218
12.493
12.5617
12.6277
12.6909
12.7511
12.8083
12.8623
12.913
12.9601
13.0036
13.0433
13.079
13.1106
13.1378
13.1605
13.1786
13.1918
13.1999
13.2028
13.2002
13.1919
13.1777
13.1573
13.1306
13.0973
13.0572
13.0099
12.9552
12.8929
12.8227
12.7443
12.6573
12.5615
12.4566
12.3467
12.2275
12.0983
11.9587
11.8085
11.6472
11.4745
11.2899
11.0931
10.8836
10.6611
10.425
10.1749
9.91038
9.63093
9.33606
9.02529
8.69809
8.35395
7.99234
7.61272
7.21454
6.79724
6.36027
5.90306
5.42503
4.92563
4.40427
3.8604
3.29346
2.7029
2.08818
1.44879
0.784229
0.622238
1.36498
1.8098
3.86502
3.72674
3.79427
3.86257
3.93165
4.00151
4.07216
4.14358
4.2158
4.28881
4.3626
4.43719
4.51256
4.58873
4.6657
4.74345
4.82199
4.90133
4.98146
5.06236
5.14407
5.22654
5.3098
5.39384
5.47865
5.56423
5.65057
5.73767
5.82552
5.91412
6.00346
6.09352
6.18432
6.27582
6.36803
6.46094
6.55453
6.64879
6.74371
6.83927
6.93548
7.0323
7.12972
7.22773
7.32631
7.42544
7.5251
7.62527
7.72594
7.82707
7.92865
8.03065
8.13305
8.23582
8.33893
8.44236
8.54607
8.65003
8.75421
8.85858
8.9631
9.06773
9.17244
9.27718
9.38192
9.48661
9.59121
9.69567
9.79994
9.90398
10.0077
10.1111
10.2142
10.3167
10.4188
10.5202
10.6211
10.7212
10.8206
10.9192
11.0168
11.1134
11.209
11.3035
11.3967
11.4887
11.5792
11.6682
11.7557
11.8416
11.9256
12.0078
12.088
12.1661
12.2421
12.3157
12.3869
12.4556
12.5216
12.5848
12.6451
12.7023
12.7563
12.8069
12.8541
12.8976
12.9372
12.9729
13.0045
13.0317
13.0544
13.0725
13.0856
13.0937
13.0966
13.0939
13.0856
13.0713
13.0509
13.0242
12.9908
12.9506
12.9032
12.8485
12.7861
12.7157
12.6372
12.5501
12.4542
12.3519
12.2422
12.1228
11.9934
11.8538
11.7034
11.5419
11.369
11.1842
10.9872
10.7775
10.5547
10.3184
10.0681
9.80327
9.52353
9.22837
8.91728
8.58976
8.24527
7.88331
7.50332
7.10475
6.68705
6.24967
5.79203
5.31356
4.81371
4.29189
3.74754
3.18012
2.58906
1.97384
1.33394
0.668868
0.73863
1.48189
1.92337
3.68586
3.62927
3.69666
3.76482
3.83376
3.90348
3.97398
4.04528
4.11736
4.19024
4.2639
4.33836
4.41361
4.48966
4.5665
4.64413
4.72256
4.80178
4.88179
4.96259
5.04417
5.12655
5.2097
5.29363
5.37834
5.46382
5.55007
5.63707
5.72483
5.81334
5.90259
5.99257
6.08328
6.1747
6.26684
6.35966
6.45318
6.54737
6.64222
6.73772
6.83386
6.93062
7.02798
7.12594
7.22446
7.32354
7.42315
7.52328
7.6239
7.725
7.82654
7.92851
8.03087
8.13361
8.23669
8.34009
8.44378
8.54772
8.65189
8.75624
8.86074
8.96536
9.07007
9.1748
9.27954
9.38423
9.48882
9.59329
9.69757
9.80161
9.90537
10.0088
10.1118
10.2144
10.3165
10.418
10.5188
10.619
10.7184
10.817
10.9146
11.0113
11.1069
11.2014
11.2947
11.3867
11.4772
11.5663
11.6539
11.7397
11.8238
11.906
11.9863
12.0644
12.1404
12.2141
12.2854
12.3541
12.4201
12.4834
12.5437
12.6009
12.6549
12.7056
12.7528
12.7963
12.836
12.8717
12.9033
12.9305
12.9532
12.9713
12.9845
12.9926
12.9954
12.9928
12.9844
12.9701
12.9497
12.923
12.8895
12.8493
12.8019
12.7471
12.6846
12.6143
12.5356
12.4485
12.3534
12.2529
12.1431
12.0236
11.8942
11.7544
11.6039
11.4423
11.2692
11.0843
10.8871
10.6773
10.4543
10.2177
9.96718
9.70215
9.42217
9.12675
8.8154
8.48759
8.14281
7.78054
7.40022
7.00132
6.58327
6.14553
5.68751
5.20866
4.7084
4.18617
3.6414
3.07354
2.48205
1.86638
1.22602
0.560491
0.84793
1.59165
2.03002
3.51292
3.53409
3.60134
3.66938
3.7382
3.8078
3.87819
3.94937
4.02133
4.09409
4.16765
4.24199
4.31714
4.39308
4.46982
4.54735
4.62567
4.70479
4.78471
4.86542
4.94692
5.0292
5.11227
5.19612
5.28074
5.36614
5.45231
5.53924
5.62693
5.71536
5.80455
5.89446
5.98511
6.07647
6.16855
6.26132
6.35478
6.44892
6.54373
6.63918
6.73528
6.832
6.92933
7.02724
7.12574
7.22479
7.32437
7.42448
7.52508
7.62615
7.72768
7.82963
7.93198
8.03472
8.13779
8.24119
8.34488
8.44882
8.55313
8.65767
8.76235
8.86713
8.97196
9.07683
9.18166
9.28644
9.3911
9.49561
9.5999
9.70395
9.80768
9.91105
10.014
10.1165
10.2184
10.3198
10.4204
10.5206
10.6201
10.7187
10.8164
10.9132
11.0088
11.1034
11.1967
11.2887
11.3794
11.4685
11.5561
11.642
11.7262
11.8085
11.8888
11.967
12.0431
12.1168
12.1881
12.2569
12.323
12.3863
12.4467
12.504
12.5581
12.6088
12.656
12.6996
12.7394
12.7751
12.8067
12.834
12.8568
12.8749
12.8881
12.8962
12.8991
12.8965
12.8882
12.8739
12.8535
12.8267
12.7933
12.753
12.7056
12.6508
12.5884
12.5179
12.4393
12.3521
12.2596
12.1591
12.0492
11.9297
11.8001
11.6603
11.5097
11.348
11.1748
10.9898
10.7924
10.5824
10.3593
10.1226
9.87186
9.60664
9.32646
9.03083
8.71924
8.39119
8.04616
7.68362
7.30302
6.90383
6.48548
6.04741
5.58906
5.10987
4.60925
4.08665
3.54151
2.97326
2.38137
1.7653
1.12454
0.458598
0.950654
1.69478
2.13027
3.3748
3.44116
3.50831
3.57624
3.64495
3.71445
3.78473
3.85581
3.92768
4.00034
4.0738
4.14806
4.22311
4.29897
4.37561
4.45306
4.53131
4.61035
4.69019
4.77083
4.85225
4.93446
5.01746
5.10125
5.18581
5.27115
5.35726
5.44413
5.53177
5.62016
5.70929
5.79916
5.88976
5.98108
6.07312
6.16586
6.25929
6.3534
6.44818
6.54361
6.63968
6.73638
6.83369
6.93159
7.03007
7.12911
7.22869
7.32879
7.42939
7.53047
7.632
7.73424
7.8369
7.93993
8.04329
8.14697
8.25091
8.3551
8.4595
8.56408
8.6688
8.77362
8.8785
8.98341
9.0883
9.19312
9.29784
9.4024
9.50676
9.61086
9.71466
9.8181
9.92112
10.0237
10.1257
10.2271
10.3278
10.4279
10.5271
10.6254
10.7229
10.8193
10.9146
11.0092
11.1026
11.1947
11.2855
11.3747
11.4624
11.5484
11.6326
11.715
11.7954
11.8737
11.9499
12.0237
12.0951
12.1639
12.2301
12.2935
12.354
12.4114
12.4655
12.5164
12.5637
12.6073
12.6471
12.683
12.7147
12.742
12.7649
12.783
12.7963
12.8045
12.8074
12.8048
12.7965
12.7823
12.762
12.7352
12.7019
12.6616
12.6142
12.5594
12.4969
12.4265
12.3479
12.2621
12.1706
12.07
11.9601
11.8406
11.711
11.5711
11.4204
11.2587
11.0854
10.9003
10.7029
10.4927
10.2695
10.0326
9.78177
9.51639
9.23605
8.94023
8.62845
8.3002
7.95495
7.59217
7.21133
6.81188
6.39326
5.95491
5.49627
5.01677
4.51584
3.99291
3.44743
2.87884
2.2866
1.67017
1.02904
0.362725
1.04727
1.79177
2.22456
3.2842
3.35047
3.41752
3.48536
3.55398
3.62339
3.69359
3.76458
3.83637
3.90896
3.98234
4.05652
4.1315
4.20729
4.28386
4.36125
4.43943
4.51841
4.59819
4.67877
4.76014
4.8423
4.92525
5.00899
5.09351
5.1788
5.26487
5.35171
5.43931
5.52767
5.61677
5.70661
5.79719
5.88849
5.98051
6.07323
6.16665
6.26075
6.35552
6.45094
6.54701
6.64371
6.74102
6.83893
6.93742
7.03649
7.13646
7.23694
7.33791
7.43936
7.54124
7.64355
7.74625
7.84931
7.95272
8.05643
8.16043
8.26467
8.36912
8.47375
8.57853
8.68341
8.78836
8.89333
8.99828
9.10318
9.20797
9.3126
9.41704
9.52122
9.6251
9.72862
9.83172
9.93436
10.0365
10.138
10.2388
10.3389
10.4382
10.5367
10.6342
10.7307
10.8261
10.9204
11.0134
11.105
11.1954
11.2847
11.3725
11.4586
11.543
11.6254
11.7059
11.7844
11.8606
11.9345
12.0061
12.075
12.1413
12.2048
12.2654
12.3229
12.3771
12.4281
12.4755
12.5192
12.5591
12.5951
12.6269
12.6543
12.6772
12.6955
12.7088
12.7171
12.7201
12.7176
12.7094
12.6952
12.6749
12.6482
12.6149
12.5747
12.5273
12.4726
12.4101
12.3397
12.2611
12.1777
12.0861
11.9856
11.8757
11.7561
11.6265
11.4866
11.3359
11.1741
11.0008
10.8156
10.6181
10.4079
10.1845
9.94758
9.69659
9.43109
9.1506
8.85463
8.54269
8.21426
7.86882
7.50585
7.12479
6.72512
6.30626
5.86766
5.40876
4.92899
4.42778
3.90456
3.35878
2.78988
2.19732
1.58056
0.939103
0.419838
1.13821
1.88305
2.31332
3.19578
3.26197
3.32895
3.39671
3.46526
3.5346
3.60473
3.67566
3.74738
3.8199
3.89323
3.96735
4.04227
4.118
4.19454
4.27187
4.35001
4.42894
4.50868
4.58922
4.67055
4.75268
4.8356
4.9193
5.0038
5.08907
5.17512
5.26194
5.34952
5.43786
5.52695
5.61679
5.70736
5.79866
5.89067
5.9834
6.07682
6.17092
6.2657
6.36114
6.45722
6.55409
6.65184
6.75019
6.8491
6.94858
7.04858
7.1491
7.25012
7.3516
7.45354
7.55589
7.65865
7.76177
7.86524
7.96901
8.07307
8.17738
8.2819
8.3866
8.49145
8.59641
8.70144
8.80649
8.91153
9.01651
9.12139
9.22612
9.33065
9.43492
9.5389
9.64252
9.74573
9.84846
9.95067
10.0523
10.1532
10.2535
10.3529
10.4515
10.5491
10.6457
10.7413
10.8356
10.9287
11.0205
11.1108
11.1996
11.2868
11.3726
11.457
11.5396
11.6203
11.6988
11.7752
11.8493
11.9209
11.99
12.0564
12.12
12.1807
12.2383
12.2927
12.3437
12.3913
12.4351
12.4752
12.5112
12.5431
12.5707
12.5937
12.612
12.6255
12.6339
12.637
12.6345
12.6264
12.6124
12.5921
12.5655
12.5323
12.4921
12.4448
12.3901
12.3277
12.2573
12.1803
12.0975
12.006
11.9055
11.7956
11.6761
11.5465
11.4065
11.2558
11.094
10.9206
10.7354
10.5378
10.3276
10.1041
9.86711
9.61603
9.35042
9.06982
8.77372
8.46164
8.13306
7.78747
7.42432
7.04308
6.64321
6.22414
5.78532
5.32619
4.84618
4.34472
3.82124
3.27519
2.70601
2.11316
1.49611
0.85436
0.50519
1.22387
1.96901
2.39693
3.10952
3.17566
3.24257
3.31027
3.37877
3.44805
3.51813
3.58901
3.66068
3.73316
3.80644
3.88052
3.95541
4.0311
4.1076
4.18489
4.263
4.34191
4.42163
4.50214
4.58346
4.66556
4.74847
4.83216
4.91665
5.00191
5.08795
5.17477
5.26235
5.3507
5.43979
5.52964
5.62022
5.71153
5.80356
5.8963
5.98974
6.08395
6.17921
6.27513
6.37168
6.46887
6.56666
6.66505
6.76402
6.86354
6.9636
7.06418
7.16525
7.2668
7.3688
7.47122
7.57404
7.67724
7.78077
7.88463
7.98877
8.09316
8.19776
8.30256
8.40749
8.51254
8.61766
8.72281
8.82795
8.93304
9.03802
9.14285
9.24749
9.35188
9.45597
9.5597
9.66303
9.76588
9.86821
9.96994
10.071
10.1714
10.2709
10.3696
10.4674
10.5642
10.6598
10.7543
10.8476
10.9395
11.0299
11.1189
11.2062
11.2919
11.3757
11.4576
11.5383
11.617
11.6935
11.7677
11.8394
11.9087
11.9752
12.039
12.0998
12.1575
12.2121
12.2632
12.3109
12.3549
12.3951
12.4312
12.4632
12.4909
12.5141
12.5325
12.5461
12.5546
12.5578
12.5555
12.5475
12.5335
12.5134
12.4868
12.4537
12.4136
12.3664
12.3117
12.2494
12.1791
12.1041
12.0214
11.93
11.8295
11.7196
11.6001
11.4705
11.3306
11.1799
11.018
10.8447
10.6594
10.4618
10.2515
10.0281
9.79096
9.5398
9.27411
8.99342
8.69722
8.38502
8.05632
7.71058
7.34728
6.96589
6.56584
6.14659
5.70758
5.24825
4.76802
4.26634
3.74263
3.19633
2.6269
2.0338
1.41648
0.774462
0.585641
1.3046
2.05001
2.47573
3.02541
3.09149
3.15836
3.22602
3.29447
3.36372
3.43376
3.5046
3.57624
3.64869
3.72194
3.796
3.87087
3.94653
4.02301
4.1003
4.17839
4.25729
4.33699
4.4175
4.49881
4.58092
4.66383
4.74753
4.83201
4.91729
5.00334
5.09017
5.17777
5.26613
5.35525
5.44512
5.53573
5.62707
5.71944
5.8127
5.90665
6.00129
6.09659
6.19256
6.28917
6.38641
6.48426
6.58271
6.68174
6.78132
6.88145
6.9821
7.08325
7.18487
7.28695
7.38945
7.49236
7.59564
7.69927
7.80321
7.90744
8.01193
8.11664
8.22153
8.32657
8.43173
8.53696
8.64222
8.74747
8.85267
8.95777
9.06272
9.16748
9.27199
9.37621
9.48007
9.58352
9.68651
9.78897
9.89084
9.99205
10.0925
10.1923
10.2911
10.389
10.4859
10.5817
10.6764
10.7698
10.8618
10.9524
11.0415
11.129
11.2148
11.2988
11.3808
11.4608
11.5387
11.6153
11.6896
11.7615
11.8309
11.8976
11.9615
12.0225
12.0804
12.1351
12.1864
12.2342
12.2783
12.3186
12.3549
12.3871
12.4149
12.4382
12.4568
12.4705
12.4791
12.4824
12.4802
12.4723
12.4585
12.4384
12.412
12.3789
12.339
12.2918
12.2373
12.175
12.106
12.0318
11.9491
11.8578
11.7573
11.6475
11.528
11.3985
11.2586
11.1079
10.9461
10.7727
10.5874
10.3899
10.1795
9.95601
9.71887
9.46766
9.20191
8.92113
8.62485
8.31256
7.98374
7.63789
7.27447
6.89293
6.49274
6.07333
5.63415
5.17463
4.69422
4.19233
3.66841
3.1219
2.55224
1.9589
1.34135
0.699082
0.661515
1.38072
2.12639
2.55005
2.9434
3.00946
3.0763
3.14393
3.21235
3.28158
3.3516
3.42242
3.49404
3.56648
3.63972
3.71376
3.78862
3.86429
3.94076
4.01805
4.09614
4.17505
4.25476
4.33527
4.41659
4.49872
4.58164
4.66535
4.74987
4.83516
4.92124
5.0081
5.09573
5.18413
5.27328
5.36362
5.45477
5.54666
5.63926
5.73257
5.82657
5.92127
6.01664
6.11267
6.20935
6.30665
6.40458
6.5031
6.6022
6.70187
6.80208
6.90281
7.00405
7.10576
7.20793
7.31053
7.41353
7.51691
7.62064
7.72469
7.82903
7.93362
8.03844
8.14345
8.24861
8.35388
8.45923
8.56461
8.66999
8.77532
8.88054
8.98563
9.09052
9.19517
9.29952
9.40352
9.50712
9.61025
9.71285
9.81487
9.91623
10.0169
10.1167
10.2157
10.3138
10.4108
10.5068
10.6016
10.6952
10.7874
10.8782
10.9674
11.0551
11.141
11.2251
11.3073
11.3875
11.4656
11.5414
11.615
11.6871
11.7566
11.8235
11.8875
11.9487
12.0067
12.0615
12.113
12.161
12.2053
12.2457
12.2822
12.3145
12.3424
12.3659
12.3846
12.3985
12.4072
12.4107
12.4086
12.4008
12.3871
12.3672
12.3409
12.3079
12.268
12.221
12.1665
12.1044
12.0373
11.9631
11.8805
11.7892
11.6888
11.5791
11.4597
11.3302
11.1903
11.0396
10.8778
10.7045
10.5192
10.3217
10.1113
9.88777
9.65061
9.39936
9.13356
8.85272
8.55637
8.244
7.9151
7.56915
7.20561
6.82396
6.42363
6.00409
5.56475
5.10508
4.62449
4.12242
3.59832
3.05161
2.48175
1.8882
1.27043
0.627939
0.733115
1.45255
2.19845
2.62018
2.8635
2.92953
2.99636
3.06397
3.13239
3.2016
3.27162
3.34243
3.41406
3.48649
3.55973
3.63379
3.70865
3.78433
3.86081
3.93811
4.01622
4.09515
4.17488
4.25542
4.33677
4.41892
4.50187
4.58562
4.67016
4.7555
4.84162
4.92852
5.01666
5.10563
5.19535
5.28582
5.37703
5.46897
5.56164
5.65501
5.74909
5.84386
5.9393
6.03541
6.13216
6.22955
6.32756
6.42617
6.52536
6.62512
6.72543
6.82626
6.92759
7.0294
7.13168
7.23438
7.33749
7.44098
7.54483
7.64899
7.75345
7.85816
7.9631
8.06823
8.17352
8.27892
8.3844
8.48992
8.59543
8.7009
8.80626
8.91149
9.01653
9.12132
9.22582
9.32997
9.43371
9.537
9.63975
9.74193
9.84345
9.94425
10.0443
10.1434
10.2417
10.3389
10.435
10.53
10.6237
10.7161
10.807
10.8964
10.9843
11.0704
11.1547
11.237
11.3174
11.3956
11.4716
11.5452
11.6163
11.6856
11.7526
11.8168
11.8781
11.9364
11.9914
12.043
12.0911
12.1356
12.1762
12.2128
12.2453
12.2734
12.297
12.3159
12.3298
12.3387
12.3423
12.3404
12.3327
12.3191
12.2994
12.2732
12.2403
12.2006
12.1537
12.0993
12.0378
11.9719
11.8979
11.8154
11.7241
11.6238
11.5142
11.3948
11.2654
11.1255
10.9749
10.8131
10.6398
10.4546
10.257
10.0467
9.82313
9.58595
9.33468
9.06884
8.78796
8.49156
8.17912
7.85015
7.50411
7.14048
6.75873
6.35829
5.93861
5.49915
5.03933
4.55859
4.05636
3.53209
2.9852
2.41516
1.82141
1.20345
0.560755
0.800714
1.52036
2.26647
2.68638
2.78567
2.8517
2.91852
2.98614
3.05456
3.12378
3.1938
3.26463
3.33627
3.40871
3.48197