/*--------------------------------*- C++ -*----------------------------------*\
| =========                 |                                                 |
| \\      /  F ield         | OpenFOAM: The Open Source CFD Toolbox           |
|  \\    /   O peration     | Version:  v1806                                 |
|   \\  /    A nd           | Web:      www.OpenFOAM.com                      |
|    \\/     M anipulation  |                                                 |
\*---------------------------------------------------------------------------*/
FoamFile
{
    version     2.0;
    format      ascii;
    class       volScalarField;
    location    "0";
    object      faceWeight;
}
// * * * * * * * * * * * * * * * * * * * * * * * * * * * * * * * * * * * * * //

dimensions      [0 0 0 0 0 0 0];


internalField   nonuniform List<scalar> 
69504
(
0.485408
0.485421
0.485433
0.485446
0.485458
0.485471
0.485484
0.485496
0.485509
0.485522
0.485536
0.485549
0.485562
0.485576
0.485589
0.485603
0.485617
0.48563
0.485644
0.485658
0.485672
0.485687
0.485701
0.485715
0.48573
0.485745
0.485759
0.485774
0.485789
0.485804
0.48582
0.485835
0.48585
0.485866
0.485882
0.485897
0.485913
0.485929
0.485945
0.485962
0.485978
0.485994
0.486011
0.486028
0.486045
0.486062
0.486079
0.486096
0.486113
0.486131
0.486148
0.486166
0.486184
0.486202
0.48622
0.486238
0.486257
0.486275
0.486294
0.486313
0.486332
0.486351
0.48637
0.48639
0.486409
0.486429
0.486449
0.486469
0.486489
0.486509
0.48653
0.48655
0.486571
0.486592
0.486613
0.486634
0.486655
0.486677
0.486699
0.486721
0.486743
0.486765
0.486787
0.48681
0.486833
0.486856
0.486879
0.486902
0.486925
0.486949
0.486973
0.486997
0.487021
0.487045
0.48707
0.487095
0.48712
0.487145
0.48717
0.487195
0.487221
0.487247
0.487273
0.4873
0.487326
0.487353
0.48738
0.487407
0.487434
0.487462
0.48749
0.487518
0.487546
0.487575
0.487603
0.487632
0.487661
0.487691
0.48772
0.48775
0.48778
0.487811
0.487841
0.487872
0.487903
0.487934
0.487966
0.487998
0.48803
0.488062
0.488095
0.488128
0.488161
0.488194
0.488228
0.488261
0.488296
0.48833
0.488365
0.4884
0.488435
0.488471
0.488506
0.488542
0.488579
0.488615
0.488652
0.48869
0.488727
0.488765
0.488803
0.488842
0.48888
0.488919
0.488959
0.488998
0.489038
0.489079
0.489119
0.48916
0.489201
0.489243
0.489285
0.489327
0.489369
0.489412
0.489455
0.485408
0.485421
0.485433
0.485446
0.485458
0.485471
0.485484
0.485496
0.485509
0.485522
0.485536
0.485549
0.485562
0.485576
0.485589
0.485603
0.485617
0.48563
0.485644
0.485658
0.485672
0.485687
0.485701
0.485715
0.48573
0.485745
0.485759
0.485774
0.485789
0.485804
0.48582
0.485835
0.48585
0.485866
0.485882
0.485897
0.485913
0.485929
0.485945
0.485962
0.485978
0.485994
0.486011
0.486028
0.486045
0.486062
0.486079
0.486096
0.486113
0.486131
0.486148
0.486166
0.486184
0.486202
0.48622
0.486238
0.486257
0.486275
0.486294
0.486313
0.486332
0.486351
0.48637
0.48639
0.486409
0.486429
0.486449
0.486469
0.486489
0.486509
0.48653
0.48655
0.486571
0.486592
0.486613
0.486634
0.486655
0.486677
0.486699
0.486721
0.486743
0.486765
0.486787
0.48681
0.486833
0.486856
0.486879
0.486902
0.486925
0.486949
0.486973
0.486997
0.487021
0.487045
0.48707
0.487095
0.48712
0.487145
0.48717
0.487195
0.487221
0.487247
0.487273
0.4873
0.487326
0.487353
0.48738
0.487407
0.487434
0.487462
0.48749
0.487518
0.487546
0.487575
0.487603
0.487632
0.487661
0.487691
0.48772
0.48775
0.487779
0.487808
0.487837
0.487866
0.487896
0.487925
0.487955
0.487985
0.488016
0.488046
0.488077
0.488108
0.488139
0.48817
0.488202
0.488234
0.488266
0.488298
0.488331
0.488364
0.488397
0.48843
0.488464
0.488497
0.488531
0.488566
0.4886
0.488635
0.48867
0.488705
0.488741
0.488776
0.488812
0.488849
0.488885
0.488922
0.488959
0.488996
0.489034
0.489072
0.48911
0.489148
0.489187
0.489226
0.489265
0.489304
0.489344
0.483792
0.485466
0.485478
0.485491
0.485504
0.485517
0.485529
0.485542
0.485556
0.485569
0.485582
0.485595
0.485609
0.485622
0.485636
0.48565
0.485663
0.485677
0.485691
0.485705
0.48572
0.485734
0.485748
0.485763
0.485777
0.485792
0.485807
0.485822
0.485837
0.485852
0.485867
0.485883
0.485898
0.485913
0.485929
0.485945
0.485961
0.485977
0.485993
0.486009
0.486025
0.486042
0.486058
0.486075
0.486092
0.486109
0.486126
0.486143
0.48616
0.486177
0.486195
0.486212
0.48623
0.486248
0.486266
0.486284
0.486302
0.486321
0.486339
0.486358
0.486376
0.486395
0.486414
0.486433
0.486453
0.486472
0.486491
0.486511
0.486531
0.486551
0.486571
0.486591
0.486612
0.486632
0.486653
0.486673
0.486694
0.486715
0.486737
0.486758
0.48678
0.486801
0.486823
0.486845
0.486867
0.48689
0.486912
0.486935
0.486958
0.48698
0.487004
0.487027
0.48705
0.487074
0.487098
0.487122
0.487146
0.48717
0.487194
0.487219
0.487244
0.487269
0.487294
0.487319
0.487345
0.487371
0.487396
0.487423
0.487449
0.487475
0.487502
0.487529
0.487556
0.487583
0.48761
0.487638
0.487666
0.487694
0.487722
0.48775
0.487778
0.487805
0.487833
0.487861
0.487888
0.487917
0.487945
0.487973
0.488002
0.488031
0.48806
0.488089
0.488119
0.488148
0.488178
0.488208
0.488238
0.488269
0.488299
0.48833
0.488361
0.488392
0.488424
0.488455
0.488487
0.488519
0.488551
0.488584
0.488617
0.488649
0.488682
0.488716
0.488749
0.488783
0.488817
0.488851
0.488886
0.48892
0.488955
0.48899
0.489025
0.489061
0.489097
0.489132
0.489169
0.489205
0.489242
0.48021
0.485512
0.485524
0.485537
0.48555
0.485563
0.485576
0.485589
0.485602
0.485615
0.485629
0.485642
0.485656
0.485669
0.485683
0.485697
0.485711
0.485725
0.485739
0.485753
0.485767
0.485781
0.485796
0.48581
0.485825
0.48584
0.485855
0.485869
0.485884
0.4859
0.485915
0.48593
0.485946
0.485961
0.485977
0.485992
0.486008
0.486024
0.48604
0.486056
0.486072
0.486089
0.486105
0.486122
0.486138
0.486155
0.486172
0.486189
0.486206
0.486223
0.486241
0.486258
0.486276
0.486293
0.486311
0.486329
0.486347
0.486365
0.486383
0.486402
0.48642
0.486439
0.486457
0.486476
0.486495
0.486514
0.486533
0.486553
0.486572
0.486592
0.486612
0.486631
0.486651
0.486671
0.486692
0.486712
0.486732
0.486753
0.486774
0.486795
0.486816
0.486837
0.486858
0.48688
0.486901
0.486923
0.486945
0.486967
0.486989
0.487011
0.487033
0.487056
0.487079
0.487101
0.487124
0.487148
0.487171
0.487194
0.487218
0.487242
0.487266
0.48729
0.487314
0.487338
0.487363
0.487387
0.487412
0.487437
0.487463
0.487488
0.487513
0.487539
0.487565
0.487591
0.487617
0.487643
0.48767
0.487697
0.487724
0.487751
0.487777
0.487803
0.487829
0.487855
0.487882
0.487908
0.487935
0.487962
0.487989
0.488017
0.488044
0.488072
0.488099
0.488127
0.488155
0.488184
0.488212
0.488241
0.48827
0.488298
0.488328
0.488357
0.488386
0.488416
0.488446
0.488476
0.488506
0.488536
0.488567
0.488597
0.488628
0.488659
0.488691
0.488722
0.488754
0.488785
0.488817
0.48885
0.488882
0.488914
0.488947
0.48898
0.489013
0.489047
0.48908
0.489114
0.489148
0.476754
0.485558
0.485571
0.485584
0.485596
0.485609
0.485623
0.485636
0.485649
0.485662
0.485676
0.485689
0.485703
0.485716
0.48573
0.485744
0.485758
0.485772
0.485786
0.4858
0.485815
0.485829
0.485843
0.485858
0.485873
0.485887
0.485902
0.485917
0.485932
0.485947
0.485962
0.485978
0.485993
0.486008
0.486024
0.48604
0.486055
0.486071
0.486087
0.486103
0.486119
0.486136
0.486152
0.486168
0.486185
0.486201
0.486218
0.486235
0.486252
0.486269
0.486286
0.486303
0.486321
0.486338
0.486356
0.486373
0.486391
0.486409
0.486427
0.486445
0.486463
0.486482
0.4865
0.486519
0.486537
0.486556
0.486575
0.486594
0.486613
0.486632
0.486651
0.486671
0.48669
0.48671
0.48673
0.48675
0.48677
0.48679
0.48681
0.48683
0.486851
0.486871
0.486892
0.486913
0.486934
0.486955
0.486976
0.486997
0.487019
0.487041
0.487062
0.487084
0.487106
0.487128
0.48715
0.487173
0.487195
0.487218
0.487241
0.487264
0.487287
0.48731
0.487333
0.487356
0.48738
0.487404
0.487428
0.487452
0.487476
0.4875
0.487524
0.487549
0.487574
0.487599
0.487624
0.487649
0.487674
0.487699
0.487725
0.487751
0.487776
0.4878
0.487825
0.48785
0.487875
0.487901
0.487926
0.487952
0.487977
0.488003
0.488029
0.488055
0.488081
0.488108
0.488134
0.488161
0.488188
0.488215
0.488242
0.488269
0.488296
0.488324
0.488351
0.488379
0.488407
0.488435
0.488463
0.488492
0.48852
0.488549
0.488578
0.488607
0.488636
0.488665
0.488695
0.488724
0.488754
0.488784
0.488814
0.488845
0.488875
0.488906
0.488936
0.488967
0.488998
0.48903
0.489061
0.473417
0.485605
0.485617
0.48563
0.485643
0.485656
0.48567
0.485683
0.485696
0.48571
0.485723
0.485737
0.48575
0.485764
0.485778
0.485792
0.485806
0.48582
0.485834
0.485848
0.485862
0.485877
0.485891
0.485906
0.48592
0.485935
0.48595
0.485965
0.48598
0.485995
0.48601
0.486025
0.48604
0.486056
0.486071
0.486087
0.486102
0.486118
0.486134
0.48615
0.486166
0.486182
0.486198
0.486214
0.486231
0.486247
0.486264
0.486281
0.486297
0.486314
0.486331
0.486348
0.486365
0.486382
0.4864
0.486417
0.486435
0.486452
0.48647
0.486488
0.486506
0.486524
0.486542
0.48656
0.486578
0.486597
0.486615
0.486634
0.486652
0.486671
0.48669
0.486709
0.486728
0.486747
0.486767
0.486786
0.486806
0.486825
0.486845
0.486865
0.486885
0.486905
0.486925
0.486945
0.486966
0.486986
0.487007
0.487027
0.487048
0.487069
0.48709
0.487111
0.487133
0.487154
0.487175
0.487197
0.487219
0.487241
0.487263
0.487285
0.487307
0.487329
0.487351
0.487374
0.487397
0.487419
0.487442
0.487465
0.487488
0.487512
0.487535
0.487558
0.487582
0.487606
0.48763
0.487654
0.487678
0.487702
0.487726
0.487751
0.487774
0.487798
0.487822
0.487845
0.487869
0.487893
0.487917
0.487942
0.487966
0.48799
0.488015
0.488039
0.488064
0.488089
0.488114
0.488139
0.488165
0.48819
0.488215
0.488241
0.488267
0.488293
0.488319
0.488345
0.488371
0.488397
0.488424
0.48845
0.488477
0.488504
0.488531
0.488558
0.488585
0.488613
0.48864
0.488668
0.488695
0.488723
0.488751
0.48878
0.488808
0.488836
0.488865
0.488894
0.488923
0.488952
0.488981
0.470193
0.485652
0.485664
0.485677
0.485691
0.485704
0.485717
0.48573
0.485744
0.485757
0.48577
0.485784
0.485798
0.485811
0.485825
0.485839
0.485853
0.485867
0.485881
0.485895
0.48591
0.485924
0.485939
0.485953
0.485968
0.485982
0.485997
0.486012
0.486027
0.486042
0.486057
0.486072
0.486087
0.486103
0.486118
0.486133
0.486149
0.486165
0.48618
0.486196
0.486212
0.486228
0.486244
0.48626
0.486276
0.486293
0.486309
0.486325
0.486342
0.486359
0.486375
0.486392
0.486409
0.486426
0.486443
0.48646
0.486478
0.486495
0.486512
0.48653
0.486547
0.486565
0.486583
0.486601
0.486619
0.486637
0.486655
0.486673
0.486691
0.48671
0.486728
0.486747
0.486765
0.486784
0.486803
0.486822
0.486841
0.48686
0.486879
0.486899
0.486918
0.486937
0.486957
0.486977
0.486997
0.487016
0.487036
0.487056
0.487077
0.487097
0.487117
0.487138
0.487158
0.487179
0.4872
0.48722
0.487241
0.487262
0.487284
0.487305
0.487326
0.487348
0.487369
0.487391
0.487412
0.487434
0.487456
0.487478
0.4875
0.487523
0.487545
0.487568
0.48759
0.487613
0.487636
0.487658
0.487681
0.487705
0.487728
0.487751
0.487773
0.487796
0.487818
0.487841
0.487864
0.487886
0.487909
0.487932
0.487955
0.487978
0.488001
0.488025
0.488048
0.488072
0.488095
0.488119
0.488143
0.488167
0.488191
0.488215
0.488239
0.488263
0.488288
0.488312
0.488337
0.488362
0.488386
0.488411
0.488436
0.488462
0.488487
0.488512
0.488538
0.488563
0.488589
0.488615
0.488641
0.488667
0.488693
0.488719
0.488746
0.488772
0.488799
0.488826
0.488853
0.48888
0.488907
0.467078
0.485699
0.485712
0.485725
0.485738
0.485751
0.485764
0.485778
0.485791
0.485805
0.485818
0.485832
0.485845
0.485859
0.485873
0.485887
0.485901
0.485915
0.485929
0.485943
0.485957
0.485972
0.485986
0.486
0.486015
0.48603
0.486044
0.486059
0.486074
0.486089
0.486104
0.486119
0.486134
0.486149
0.486164
0.48618
0.486195
0.486211
0.486226
0.486242
0.486258
0.486273
0.486289
0.486305
0.486321
0.486337
0.486354
0.48637
0.486386
0.486403
0.486419
0.486436
0.486452
0.486469
0.486486
0.486503
0.48652
0.486537
0.486554
0.486571
0.486588
0.486606
0.486623
0.48664
0.486658
0.486676
0.486693
0.486711
0.486729
0.486747
0.486765
0.486783
0.486802
0.48682
0.486838
0.486857
0.486875
0.486894
0.486913
0.486931
0.48695
0.486969
0.486988
0.487007
0.487026
0.487046
0.487065
0.487084
0.487104
0.487124
0.487143
0.487163
0.487183
0.487203
0.487223
0.487243
0.487263
0.487283
0.487304
0.487324
0.487345
0.487365
0.487386
0.487407
0.487428
0.487449
0.48747
0.487491
0.487512
0.487533
0.487555
0.487576
0.487598
0.487619
0.487641
0.487663
0.487685
0.487707
0.487729
0.487751
0.487773
0.487794
0.487815
0.487837
0.487858
0.48788
0.487901
0.487923
0.487945
0.487967
0.487989
0.488011
0.488033
0.488055
0.488077
0.4881
0.488122
0.488145
0.488167
0.48819
0.488213
0.488236
0.488259
0.488282
0.488305
0.488328
0.488352
0.488375
0.488398
0.488422
0.488446
0.488469
0.488493
0.488517
0.488541
0.488566
0.48859
0.488614
0.488639
0.488663
0.488688
0.488712
0.488737
0.488762
0.488787
0.488813
0.488838
0.464067
0.485746
0.485759
0.485772
0.485785
0.485799
0.485812
0.485825
0.485839
0.485852
0.485866
0.485879
0.485893
0.485907
0.48592
0.485934
0.485948
0.485962
0.485976
0.48599
0.486005
0.486019
0.486033
0.486048
0.486062
0.486077
0.486091
0.486106
0.486121
0.486135
0.48615
0.486165
0.48618
0.486195
0.48621
0.486226
0.486241
0.486256
0.486272
0.486287
0.486303
0.486318
0.486334
0.48635
0.486366
0.486382
0.486397
0.486414
0.48643
0.486446
0.486462
0.486478
0.486495
0.486511
0.486528
0.486544
0.486561
0.486578
0.486594
0.486611
0.486628
0.486645
0.486662
0.486679
0.486697
0.486714
0.486731
0.486749
0.486766
0.486784
0.486801
0.486819
0.486837
0.486855
0.486873
0.48689
0.486909
0.486927
0.486945
0.486963
0.486981
0.487
0.487018
0.487037
0.487055
0.487074
0.487093
0.487112
0.48713
0.487149
0.487168
0.487188
0.487207
0.487226
0.487245
0.487265
0.487284
0.487304
0.487323
0.487343
0.487363
0.487382
0.487402
0.487422
0.487442
0.487462
0.487483
0.487503
0.487523
0.487543
0.487564
0.487584
0.487605
0.487626
0.487646
0.487667
0.487688
0.487709
0.48773
0.487751
0.487772
0.487792
0.487812
0.487833
0.487853
0.487873
0.487894
0.487915
0.487935
0.487956
0.487977
0.487998
0.488019
0.48804
0.488061
0.488082
0.488103
0.488124
0.488146
0.488167
0.488188
0.48821
0.488232
0.488253
0.488275
0.488297
0.488319
0.488341
0.488363
0.488385
0.488407
0.48843
0.488452
0.488474
0.488497
0.488519
0.488542
0.488565
0.488588
0.488611
0.488634
0.488657
0.48868
0.488703
0.488727
0.48875
0.488774
0.461155
0.485794
0.485807
0.48582
0.485833
0.485846
0.48586
0.485873
0.485886
0.4859
0.485913
0.485927
0.48594
0.485954
0.485968
0.485982
0.485996
0.48601
0.486024
0.486038
0.486052
0.486066
0.48608
0.486095
0.486109
0.486123
0.486138
0.486152
0.486167
0.486182
0.486196
0.486211
0.486226
0.486241
0.486256
0.486271
0.486286
0.486301
0.486317
0.486332
0.486347
0.486363
0.486378
0.486394
0.486409
0.486425
0.486441
0.486457
0.486472
0.486488
0.486504
0.48652
0.486536
0.486553
0.486569
0.486585
0.486601
0.486618
0.486634
0.486651
0.486667
0.486684
0.486701
0.486718
0.486734
0.486751
0.486768
0.486785
0.486802
0.486819
0.486837
0.486854
0.486871
0.486888
0.486906
0.486923
0.486941
0.486959
0.486976
0.486994
0.487012
0.48703
0.487047
0.487065
0.487083
0.487102
0.48712
0.487138
0.487156
0.487174
0.487193
0.487211
0.48723
0.487248
0.487267
0.487286
0.487304
0.487323
0.487342
0.487361
0.48738
0.487399
0.487418
0.487437
0.487456
0.487476
0.487495
0.487514
0.487534
0.487553
0.487573
0.487592
0.487612
0.487632
0.487652
0.487671
0.487691
0.487711
0.487731
0.487751
0.487771
0.48779
0.487809
0.487829
0.487848
0.487867
0.487887
0.487907
0.487926
0.487946
0.487965
0.487985
0.488005
0.488025
0.488045
0.488065
0.488085
0.488105
0.488125
0.488145
0.488165
0.488186
0.488206
0.488226
0.488247
0.488268
0.488288
0.488309
0.48833
0.48835
0.488371
0.488392
0.488413
0.488434
0.488455
0.488476
0.488498
0.488519
0.48854
0.488562
0.488583
0.488605
0.488627
0.488649
0.48867
0.488692
0.488714
0.458338
0.485842
0.485855
0.485868
0.485881
0.485894
0.485907
0.485921
0.485934
0.485947
0.485961
0.485974
0.485988
0.486002
0.486015
0.486029
0.486043
0.486057
0.486071
0.486085
0.486099
0.486113
0.486127
0.486141
0.486155
0.48617
0.486184
0.486199
0.486213
0.486228
0.486242
0.486257
0.486272
0.486286
0.486301
0.486316
0.486331
0.486346
0.486361
0.486376
0.486391
0.486407
0.486422
0.486437
0.486452
0.486468
0.486483
0.486499
0.486515
0.48653
0.486546
0.486562
0.486577
0.486593
0.486609
0.486625
0.486641
0.486657
0.486673
0.48669
0.486706
0.486722
0.486738
0.486755
0.486771
0.486788
0.486804
0.486821
0.486837
0.486854
0.486871
0.486888
0.486904
0.486921
0.486938
0.486955
0.486972
0.486989
0.487007
0.487024
0.487041
0.487058
0.487076
0.487093
0.487111
0.487128
0.487146
0.487163
0.487181
0.487198
0.487216
0.487234
0.487252
0.48727
0.487288
0.487306
0.487324
0.487342
0.48736
0.487378
0.487396
0.487415
0.487433
0.487451
0.48747
0.487488
0.487507
0.487525
0.487544
0.487562
0.487581
0.4876
0.487619
0.487638
0.487656
0.487675
0.487694
0.487713
0.487732
0.487752
0.48777
0.487788
0.487807
0.487825
0.487843
0.487862
0.48788
0.487899
0.487917
0.487936
0.487955
0.487973
0.487992
0.488011
0.48803
0.488049
0.488068
0.488087
0.488106
0.488125
0.488144
0.488163
0.488182
0.488201
0.488221
0.48824
0.488259
0.488279
0.488298
0.488318
0.488337
0.488357
0.488377
0.488396
0.488416
0.488436
0.488456
0.488476
0.488496
0.488516
0.488536
0.488557
0.488577
0.488597
0.488618
0.488638
0.488659
0.455613
0.485889
0.485902
0.485915
0.485928
0.485942
0.485955
0.485968
0.485981
0.485995
0.486008
0.486022
0.486035
0.486049
0.486062
0.486076
0.48609
0.486104
0.486117
0.486131
0.486145
0.486159
0.486173
0.486187
0.486202
0.486216
0.48623
0.486244
0.486259
0.486273
0.486287
0.486302
0.486317
0.486331
0.486346
0.48636
0.486375
0.48639
0.486405
0.48642
0.486435
0.48645
0.486465
0.48648
0.486495
0.48651
0.486525
0.486541
0.486556
0.486571
0.486587
0.486602
0.486618
0.486633
0.486649
0.486664
0.48668
0.486696
0.486712
0.486727
0.486743
0.486759
0.486775
0.486791
0.486807
0.486823
0.486839
0.486855
0.486872
0.486888
0.486904
0.486921
0.486937
0.486953
0.48697
0.486986
0.487003
0.487019
0.487036
0.487053
0.487069
0.487086
0.487103
0.48712
0.487137
0.487154
0.487171
0.487188
0.487205
0.487222
0.487239
0.487256
0.487273
0.48729
0.487308
0.487325
0.487342
0.48736
0.487377
0.487395
0.487412
0.48743
0.487447
0.487465
0.487482
0.4875
0.487518
0.487536
0.487553
0.487571
0.487589
0.487607
0.487625
0.487643
0.487661
0.487679
0.487697
0.487715
0.487734
0.487752
0.487769
0.487787
0.487804
0.487822
0.487839
0.487857
0.487874
0.487892
0.487909
0.487927
0.487945
0.487962
0.48798
0.487998
0.488016
0.488033
0.488051
0.488069
0.488087
0.488105
0.488123
0.488141
0.488159
0.488178
0.488196
0.488214
0.488232
0.48825
0.488269
0.488287
0.488306
0.488324
0.488343
0.488361
0.48838
0.488398
0.488417
0.488436
0.488455
0.488474
0.488492
0.488511
0.48853
0.48855
0.488569
0.488588
0.488607
0.452976
0.485937
0.48595
0.485963
0.485976
0.485989
0.486002
0.486015
0.486029
0.486042
0.486055
0.486069
0.486082
0.486096
0.486109
0.486123
0.486136
0.48615
0.486164
0.486178
0.486191
0.486205
0.486219
0.486233
0.486247
0.486261
0.486275
0.48629
0.486304
0.486318
0.486332
0.486347
0.486361
0.486375
0.48639
0.486404
0.486419
0.486433
0.486448
0.486463
0.486477
0.486492
0.486507
0.486522
0.486536
0.486551
0.486566
0.486581
0.486596
0.486611
0.486627
0.486642
0.486657
0.486672
0.486687
0.486703
0.486718
0.486733
0.486749
0.486764
0.48678
0.486795
0.486811
0.486826
0.486842
0.486858
0.486873
0.486889
0.486905
0.486921
0.486937
0.486953
0.486968
0.486984
0.487
0.487016
0.487032
0.487049
0.487065
0.487081
0.487097
0.487113
0.487129
0.487146
0.487162
0.487178
0.487195
0.487211
0.487228
0.487244
0.487261
0.487277
0.487294
0.48731
0.487327
0.487344
0.48736
0.487377
0.487394
0.48741
0.487427
0.487444
0.487461
0.487478
0.487495
0.487512
0.487529
0.487546
0.487563
0.48758
0.487597
0.487614
0.487631
0.487648
0.487665
0.487683
0.4877
0.487717
0.487735
0.487752
0.487768
0.487785
0.487802
0.487818
0.487835
0.487851
0.487868
0.487885
0.487902
0.487918
0.487935
0.487952
0.487969
0.487985
0.488002
0.488019
0.488036
0.488053
0.48807
0.488087
0.488104
0.488121
0.488138
0.488155
0.488172
0.488189
0.488207
0.488224
0.488241
0.488258
0.488276
0.488293
0.488311
0.488328
0.488345
0.488363
0.488381
0.488398
0.488416
0.488434
0.488451
0.488469
0.488487
0.488505
0.488523
0.488541
0.488559
0.450425
0.485984
0.485997
0.48601
0.486023
0.486036
0.486049
0.486063
0.486076
0.486089
0.486102
0.486116
0.486129
0.486142
0.486156
0.486169
0.486183
0.486196
0.48621
0.486224
0.486237
0.486251
0.486265
0.486279
0.486292
0.486306
0.48632
0.486334
0.486348
0.486362
0.486376
0.48639
0.486405
0.486419
0.486433
0.486447
0.486462
0.486476
0.48649
0.486505
0.486519
0.486534
0.486548
0.486563
0.486577
0.486592
0.486607
0.486621
0.486636
0.486651
0.486666
0.48668
0.486695
0.48671
0.486725
0.48674
0.486755
0.48677
0.486785
0.4868
0.486815
0.486831
0.486846
0.486861
0.486876
0.486891
0.486907
0.486922
0.486937
0.486953
0.486968
0.486984
0.486999
0.487015
0.48703
0.487046
0.487061
0.487077
0.487092
0.487108
0.487124
0.487139
0.487155
0.487171
0.487187
0.487202
0.487218
0.487234
0.48725
0.487266
0.487282
0.487298
0.487313
0.487329
0.487345
0.487361
0.487377
0.487394
0.48741
0.487426
0.487442
0.487458
0.487474
0.48749
0.487506
0.487523
0.487539
0.487555
0.487571
0.487588
0.487604
0.48762
0.487637
0.487653
0.48767
0.487686
0.487702
0.487719
0.487735
0.487752
0.487768
0.487784
0.487799
0.487815
0.487831
0.487847
0.487862
0.487878
0.487894
0.48791
0.487926
0.487942
0.487958
0.487974
0.48799
0.488006
0.488022
0.488038
0.488054
0.48807
0.488086
0.488102
0.488118
0.488134
0.48815
0.488166
0.488183
0.488199
0.488215
0.488231
0.488248
0.488264
0.48828
0.488297
0.488313
0.48833
0.488346
0.488363
0.488379
0.488396
0.488413
0.488429
0.488446
0.488463
0.48848
0.488497
0.488514
0.447956
0.486032
0.486045
0.486057
0.48607
0.486083
0.486096
0.486109
0.486123
0.486136
0.486149
0.486162
0.486175
0.486189
0.486202
0.486215
0.486229
0.486242
0.486256
0.486269
0.486283
0.486296
0.48631
0.486323
0.486337
0.486351
0.486365
0.486378
0.486392
0.486406
0.48642
0.486434
0.486448
0.486462
0.486476
0.48649
0.486504
0.486518
0.486532
0.486546
0.48656
0.486575
0.486589
0.486603
0.486617
0.486632
0.486646
0.486661
0.486675
0.486689
0.486704
0.486718
0.486733
0.486748
0.486762
0.486777
0.486791
0.486806
0.486821
0.486835
0.48685
0.486865
0.48688
0.486894
0.486909
0.486924
0.486939
0.486954
0.486969
0.486984
0.486999
0.487014
0.487029
0.487044
0.487059
0.487074
0.487089
0.487104
0.487119
0.487134
0.487149
0.487165
0.48718
0.487195
0.48721
0.487225
0.487241
0.487256
0.487271
0.487286
0.487302
0.487317
0.487332
0.487348
0.487363
0.487379
0.487394
0.487409
0.487425
0.48744
0.487456
0.487471
0.487487
0.487502
0.487518
0.487533
0.487549
0.487564
0.48758
0.487596
0.487611
0.487627
0.487642
0.487658
0.487674
0.487689
0.487705
0.487721
0.487736
0.487752
0.487767
0.487782
0.487797
0.487812
0.487827
0.487842
0.487857
0.487872
0.487887
0.487902
0.487917
0.487932
0.487947
0.487963
0.487978
0.487993
0.488008
0.488023
0.488038
0.488053
0.488069
0.488084
0.488099
0.488114
0.488129
0.488145
0.48816
0.488175
0.488191
0.488206
0.488221
0.488237
0.488252
0.488268
0.488283
0.488299
0.488314
0.48833
0.488345
0.488361
0.488377
0.488392
0.488408
0.488424
0.48844
0.488456
0.488471
0.445568
0.486079
0.486092
0.486104
0.486117
0.48613
0.486143
0.486156
0.486169
0.486182
0.486195
0.486208
0.486221
0.486234
0.486248
0.486261
0.486274
0.486287
0.486301
0.486314
0.486327
0.486341
0.486354
0.486368
0.486381
0.486395
0.486408
0.486422
0.486435
0.486449
0.486463
0.486476
0.48649
0.486504
0.486518
0.486531
0.486545
0.486559
0.486573
0.486587
0.486601
0.486615
0.486629
0.486643
0.486657
0.486671
0.486685
0.486699
0.486713
0.486727
0.486741
0.486755
0.48677
0.486784
0.486798
0.486812
0.486827
0.486841
0.486855
0.48687
0.486884
0.486898
0.486913
0.486927
0.486942
0.486956
0.48697
0.486985
0.486999
0.487014
0.487028
0.487043
0.487057
0.487072
0.487087
0.487101
0.487116
0.48713
0.487145
0.48716
0.487174
0.487189
0.487204
0.487218
0.487233
0.487248
0.487262
0.487277
0.487292
0.487306
0.487321
0.487336
0.487351
0.487365
0.48738
0.487395
0.48741
0.487425
0.487439
0.487454
0.487469
0.487484
0.487499
0.487514
0.487529
0.487543
0.487558
0.487573
0.487588
0.487603
0.487618
0.487633
0.487648
0.487663
0.487677
0.487692
0.487707
0.487722
0.487737
0.487752
0.487767
0.487781
0.487795
0.487809
0.487824
0.487838
0.487852
0.487866
0.487881
0.487895
0.487909
0.487923
0.487938
0.487952
0.487966
0.487981
0.487995
0.488009
0.488024
0.488038
0.488052
0.488067
0.488081
0.488095
0.48811
0.488124
0.488139
0.488153
0.488168
0.488182
0.488197
0.488211
0.488226
0.48824
0.488255
0.488269
0.488284
0.488299
0.488313
0.488328
0.488343
0.488357
0.488372
0.488387
0.488402
0.488417
0.488432
0.443256
0.486126
0.486138
0.486151
0.486164
0.486176
0.486189
0.486202
0.486215
0.486228
0.486241
0.486254
0.486267
0.48628
0.486293
0.486306
0.486319
0.486332
0.486345
0.486358
0.486372
0.486385
0.486398
0.486411
0.486425
0.486438
0.486451
0.486465
0.486478
0.486491
0.486505
0.486518
0.486532
0.486545
0.486559
0.486572
0.486586
0.486599
0.486613
0.486627
0.48664
0.486654
0.486668
0.486681
0.486695
0.486709
0.486723
0.486736
0.48675
0.486764
0.486778
0.486792
0.486806
0.486819
0.486833
0.486847
0.486861
0.486875
0.486889
0.486903
0.486917
0.486931
0.486945
0.486959
0.486973
0.486987
0.487001
0.487015
0.487029
0.487043
0.487057
0.487071
0.487085
0.487099
0.487113
0.487128
0.487142
0.487156
0.48717
0.487184
0.487198
0.487212
0.487226
0.487241
0.487255
0.487269
0.487283
0.487297
0.487312
0.487326
0.48734
0.487354
0.487368
0.487382
0.487397
0.487411
0.487425
0.487439
0.487454
0.487468
0.487482
0.487496
0.48751
0.487525
0.487539
0.487553
0.487567
0.487581
0.487596
0.48761
0.487624
0.487638
0.487653
0.487667
0.487681
0.487695
0.48771
0.487724
0.487738
0.487752
0.487766
0.487779
0.487793
0.487807
0.48782
0.487834
0.487847
0.487861
0.487874
0.487888
0.487901
0.487915
0.487928
0.487942
0.487956
0.487969
0.487983
0.487996
0.48801
0.488023
0.488037
0.488051
0.488064
0.488078
0.488091
0.488105
0.488119
0.488132
0.488146
0.488159
0.488173
0.488187
0.488201
0.488214
0.488228
0.488242
0.488256
0.488269
0.488283
0.488297
0.488311
0.488325
0.488339
0.488353
0.488367
0.488381
0.488395
0.44102
0.486172
0.486185
0.486197
0.48621
0.486222
0.486235
0.486248
0.486261
0.486273
0.486286
0.486299
0.486312
0.486325
0.486337
0.48635
0.486363
0.486376
0.486389
0.486402
0.486415
0.486428
0.486441
0.486454
0.486467
0.48648
0.486494
0.486507
0.48652
0.486533
0.486546
0.486559
0.486573
0.486586
0.486599
0.486612
0.486626
0.486639
0.486652
0.486666
0.486679
0.486693
0.486706
0.486719
0.486733
0.486746
0.48676
0.486773
0.486786
0.4868
0.486813
0.486827
0.48684
0.486854
0.486867
0.486881
0.486895
0.486908
0.486922
0.486935
0.486949
0.486962
0.486976
0.48699
0.487003
0.487017
0.48703
0.487044
0.487058
0.487071
0.487085
0.487099
0.487112
0.487126
0.487139
0.487153
0.487167
0.48718
0.487194
0.487208
0.487221
0.487235
0.487249
0.487262
0.487276
0.48729
0.487303
0.487317
0.487331
0.487344
0.487358
0.487371
0.487385
0.487399
0.487412
0.487426
0.48744
0.487453
0.487467
0.487481
0.487494
0.487508
0.487521
0.487535
0.487549
0.487562
0.487576
0.487589
0.487603
0.487617
0.48763
0.487644
0.487657
0.487671
0.487685
0.487698
0.487712
0.487725
0.487739
0.487752
0.487765
0.487778
0.487791
0.487804
0.487817
0.48783
0.487843
0.487855
0.487868
0.487881
0.487894
0.487907
0.48792
0.487933
0.487945
0.487958
0.487971
0.487984
0.487997
0.48801
0.488022
0.488035
0.488048
0.488061
0.488074
0.488087
0.4881
0.488112
0.488125
0.488138
0.488151
0.488164
0.488177
0.48819
0.488203
0.488216
0.488229
0.488242
0.488255
0.488268
0.488281
0.488294
0.488307
0.48832
0.488333
0.488347
0.48836
0.438857
0.486218
0.48623
0.486243
0.486255
0.486268
0.48628
0.486293
0.486306
0.486318
0.486331
0.486343
0.486356
0.486369
0.486381
0.486394
0.486407
0.48642
0.486432
0.486445
0.486458
0.486471
0.486484
0.486497
0.486509
0.486522
0.486535
0.486548
0.486561
0.486574
0.486587
0.4866
0.486613
0.486626
0.486639
0.486652
0.486665
0.486678
0.486691
0.486704
0.486717
0.48673
0.486743
0.486756
0.486769
0.486783
0.486796
0.486809
0.486822
0.486835
0.486848
0.486861
0.486874
0.486888
0.486901
0.486914
0.486927
0.48694
0.486954
0.486967
0.48698
0.486993
0.487006
0.487019
0.487033
0.487046
0.487059
0.487072
0.487085
0.487099
0.487112
0.487125
0.487138
0.487151
0.487165
0.487178
0.487191
0.487204
0.487217
0.48723
0.487244
0.487257
0.48727
0.487283
0.487296
0.487309
0.487323
0.487336
0.487349
0.487362
0.487375
0.487388
0.487401
0.487414
0.487428
0.487441
0.487454
0.487467
0.48748
0.487493
0.487506
0.487519
0.487532
0.487545
0.487558
0.487571
0.487584
0.487597
0.48761
0.487623
0.487636
0.487649
0.487662
0.487675
0.487688
0.487701
0.487714
0.487727
0.48774
0.487752
0.487765
0.487777
0.487789
0.487802
0.487814
0.487826
0.487838
0.48785
0.487863
0.487875
0.487887
0.487899
0.487911
0.487924
0.487936
0.487948
0.48796
0.487972
0.487984
0.487997
0.488009
0.488021
0.488033
0.488045
0.488057
0.488069
0.488082
0.488094
0.488106
0.488118
0.48813
0.488143
0.488155
0.488167
0.488179
0.488191
0.488204
0.488216
0.488228
0.48824
0.488253
0.488265
0.488277
0.48829
0.488302
0.488315
0.488327
0.436765
0.486264
0.486276
0.486288
0.486301
0.486313
0.486325
0.486338
0.48635
0.486363
0.486375
0.486387
0.4864
0.486412
0.486425
0.486437
0.48645
0.486462
0.486475
0.486488
0.4865
0.486513
0.486525
0.486538
0.486551
0.486563
0.486576
0.486589
0.486601
0.486614
0.486627
0.486639
0.486652
0.486665
0.486678
0.48669
0.486703
0.486716
0.486729
0.486741
0.486754
0.486767
0.48678
0.486792
0.486805
0.486818
0.486831
0.486844
0.486856
0.486869
0.486882
0.486895
0.486908
0.48692
0.486933
0.486946
0.486959
0.486972
0.486984
0.486997
0.48701
0.487023
0.487036
0.487048
0.487061
0.487074
0.487087
0.4871
0.487112
0.487125
0.487138
0.487151
0.487163
0.487176
0.487189
0.487202
0.487214
0.487227
0.48724
0.487252
0.487265
0.487278
0.487291
0.487303
0.487316
0.487329
0.487341
0.487354
0.487366
0.487379
0.487392
0.487404
0.487417
0.487429
0.487442
0.487455
0.487467
0.48748
0.487492
0.487505
0.487517
0.48753
0.487542
0.487555