/*--------------------------------*- C++ -*----------------------------------*\
| =========                 |                                                 |
| \\      /  F ield         | OpenFOAM: The Open Source CFD Toolbox           |
|  \\    /   O peration     | Version:  v1806                                 |
|   \\  /    A nd           | Web:      www.OpenFOAM.com                      |
|    \\/     M anipulation  |                                                 |
\*---------------------------------------------------------------------------*/
FoamFile
{
    version     2.0;
    format      ascii;
    class       volScalarField;
    location    "0";
    object      skewness;
}
// * * * * * * * * * * * * * * * * * * * * * * * * * * * * * * * * * * * * * //

dimensions      [0 0 0 0 0 0 0];


internalField   nonuniform List<scalar> 
69504
(
0.219795
0.222861
0.225961
0.229096
0.232265
0.23547
0.23871
0.241985
0.245296
0.248642
0.252024
0.255441
0.258895
0.262384
0.265908
0.269469
0.273065
0.276698
0.280366
0.28407
0.287809
0.291585
0.295396
0.299242
0.303124
0.307041
0.310993
0.31498
0.319002
0.323058
0.327148
0.331273
0.33543
0.339621
0.343845
0.348102
0.352391
0.356711
0.361062
0.365444
0.369857
0.374298
0.378769
0.383268
0.387794
0.392348
0.396927
0.401532
0.406161
0.410813
0.415488
0.420184
0.424901
0.429637
0.434391
0.439163
0.443949
0.448751
0.453565
0.45839
0.463226
0.46807
0.47292
0.477776
0.482634
0.487494
0.492354
0.497211
0.502063
0.506907
0.511743
0.516567
0.521377
0.52617
0.530945
0.535696
0.540424
0.545123
0.549791
0.554425
0.559022
0.563578
0.56809
0.572554
0.576966
0.581323
0.58562
0.589853
0.594018
0.59811
0.602126
0.606059
0.609906
0.613661
0.617318
0.620874
0.624321
0.627655
0.630869
0.633958
0.636914
0.639733
0.642406
0.644927
0.64729
0.649487
0.651509
0.653351
0.655004
0.656459
0.657709
0.658744
0.659557
0.660137
0.660477
0.660565
0.660393
0.65995
0.659226
0.658211
0.656893
0.655261
0.653305
0.651011
0.648369
0.645366
0.641989
0.638226
0.634063
0.629487
0.624483
0.619039
0.613138
0.606768
0.599911
0.592554
0.58468
0.571221
0.553919
0.536482
0.518907
0.501194
0.483342
0.46535
0.447217
0.428941
0.410522
0.391959
0.373249
0.354393
0.335389
0.316236
0.296932
0.277477
0.257869
0.238107
0.218191
0.198118
0.177887
0.157498
0.136949
0.116239
0.0953663
0.07433
0.0531288
0.0317613
0.0102262
0.00463636
0.00463636
0.00460991
0.00458329
0.00455646
0.00452943
0.00450221
0.00447478
0.00444715
0.00441933
0.00439129
0.00436305
0.0043346
0.00430594
0.00427707
0.00424799
0.0042187
0.00418918
0.00415946
0.00412952
0.00409936
0.00406897
0.00403837
0.00400754
0.00397649
0.00394521
0.0039137
0.00388196
0.00384999
0.00381779
0.00378536
0.00375268
0.00371978
0.00368663
0.00365324
0.00361961
0.00358574
0.00355162
0.00351726
0.00348265
0.00344779
0.00341267
0.00337731
0.00334169
0.00330581
0.00326968
0.00323329
0.00319664
0.00315973
0.00312255
0.00308511
0.00304741
0.00300943
0.00297118
0.00293267
0.00289388
0.00285482
0.00281548
0.00277586
0.00273597
0.00269579
0.00265534
0.0026146
0.00257357
0.00253226
0.00249066
0.00244878
0.0024066
0.00236413
0.00232137
0.00227831
0.00223496
0.00219131
0.00214736
0.00210311
0.00205856
0.00201371
0.00196855
0.00192309
0.00187732
0.00183124
0.00178486
0.00173816
0.00169116
0.00164384
0.00159621
0.00154826
0.0015
0.00145143
0.00140254
0.00135333
0.0013038
0.00125395
0.00120378
0.00115329
0.00110248
0.00105135
0.000999895
0.000948117
0.000896015
0.000843591
0.00079084
0.000737768
0.00068437
0.000630647
0.000576599
0.000522226
0.000467528
0.000412508
0.000403193
0.000402477
0.000401401
0.00039995
0.00039811
0.000395859
0.00039318
0.000390061
0.000386481
0.000382421
0.000377865
0.000372796
0.000391581
0.000451393
0.000511522
0.000571946
0.000632678
0.000693718
0.000755056
0.000816697
0.000878632
0.000940859
0.00100338
0.00106618
0.00112928
0.00119265
0.0012563
0.00132023
0.00138443
0.00144889
0.00151362
0.0015786
0.00164383
0.00170932
0.00177505
0.00184102
0.00190722
0.00197366
0.00204031
0.00210718
0.00217426
0.00224154
0.00230903
0.0023767
0.00244455
0.00251259
0.00258079
0.00264915
0.00271766
0.00278632
0.00285513
0.00292405
0.00299309
0.00306225
0.0031315
0.00320085
0.00327027
0.00327027
0.00454528
0.00454528
0.00451865
0.00449184
0.00446484
0.00443765
0.00441026
0.00438269
0.00435492
0.00432695
0.00429879
0.00427043
0.00424187
0.0042131
0.00418415
0.00415499
0.00412562
0.00409604
0.00406626
0.00403628
0.00400608
0.00397567
0.00394506
0.00391423
0.00388318
0.00385193
0.00382045
0.00378876
0.00375685
0.00372472
0.00369236
0.00365978
0.00362699
0.00359396
0.00356071
0.00352723
0.00349352
0.00345958
0.00342541
0.00339101
0.00335637
0.0033215
0.00328639
0.00325105
0.00321546
0.00317964
0.00314357
0.00310726
0.0030707
0.00303391
0.00299686
0.00295957
0.00292203
0.00288424
0.00284619
0.0028079
0.00276935
0.00273055
0.00269149
0.00265217
0.0026126
0.00257277
0.00253268
0.00249233
0.00245171
0.00241083
0.00236969
0.00232828
0.0022866
0.00224466
0.00220245
0.00215997
0.00211722
0.0020742
0.00203091
0.00198734
0.0019435
0.00189939
0.001855
0.00181034
0.00176539
0.00172018
0.00167468
0.00162891
0.00158285
0.00153652
0.00148991
0.00144301
0.00139584
0.00134838
0.00130064
0.00125262
0.00120432
0.00115573
0.00110687
0.00105772
0.00100828
0.000958564
0.000908567
0.000858284
0.000807721
0.000756873
0.000705745
0.000654335
0.000602641
0.00055067
0.00049842
0.000445888
0.000393076
0.000374645
0.000373589
0.000372175
0.000370388
0.000368212
0.00036563
0.000362628
0.000359189
0.000355291
0.000350915
0.000346045
0.000340662
0.000374941
0.000431784
0.000488889
0.000546245
0.000603852
0.000661707
0.000719801
0.000778139
0.000836722
0.000895532
0.000954578
0.00101386
0.00107336
0.00113308
0.00119303
0.00125319
0.00131355
0.00137412
0.00143489
0.00149586
0.00155703
0.00161837
0.0016799
0.00174161
0.00180348
0.00186552
0.00192772
0.00199008
0.00205257
0.00211522
0.00217799
0.00224089
0.00230391
0.00236705
0.00243028
0.00249362
0.00255705
0.00262055
0.00268414
0.00274779
0.00281149
0.00287524
0.00293903
0.00300285
0.00306669
0.00473057
0.00445318
0.00445318
0.0044264
0.00439943
0.00437229
0.00434496
0.00431745
0.00428975
0.00426186
0.0042338
0.00420554
0.00417709
0.00414845
0.00411963
0.00409061
0.00406139
0.00403199
0.00400239
0.00397258
0.00394259
0.0039124
0.003882
0.00385141
0.00382061
0.00378961
0.00375841
0.00372701
0.0036954
0.00366358
0.00363155
0.00359932
0.00356688
0.00353422
0.00350136
0.00346828
0.00343499
0.00340148
0.00336776
0.00333382
0.00329966
0.00326529
0.0032307
0.00319588
0.00316084
0.00312558
0.0030901
0.00305439
0.00301847
0.00298231
0.00294592
0.00290931
0.00287247
0.0028354
0.00279809
0.00276056
0.00272279
0.0026848
0.00264656
0.0026081
0.00256939
0.00253045
0.00249128
0.00245186
0.00241221
0.00237232
0.00233219
0.00229182
0.0022512
0.00221035
0.00216925
0.00212791
0.00208633
0.0020445
0.00200242
0.00196011
0.00191754
0.00187473
0.00183168
0.00178837
0.00174483
0.00170103
0.00165698
0.00161269
0.00156815
0.00152336
0.00147833
0.00143304
0.00138751
0.00134173
0.0012957
0.00124942
0.00120289
0.00115612
0.0011091
0.00106183
0.00101431
0.000966547
0.000918535
0.00087028
0.00082178
0.000773034
0.000724044
0.000674811
0.000625336
0.000575619
0.000525662
0.000475465
0.000425028
0.000374355
0.000347008
0.000345611
0.000343857
0.000341732
0.000339221
0.000336305
0.00033297
0.000329192
0.000324961
0.000320259
0.000315066
0.000309357
0.000359157
0.000413199
0.000467444
0.000521891
0.000576551
0.000631399
0.000686451
0.000741692
0.000797117
0.000852733
0.000908531
0.000964511
0.00102066
0.00107698
0.00113347
0.00119012
0.00124693
0.0013039
0.00136101
0.00141827
0.00147566
0.00153319
0.00159085
0.00164864
0.00170654
0.00176455
0.00182267
0.0018809
0.00193921
0.00199762
0.0020561
0.00211466
0.00217329
0.00223198
0.00229072
0.00234951
0.00240834
0.0024672
0.00252608
0.00258498
0.00264389
0.00270279
0.00276169
0.00282056
0.00287941
0.00838144
0.00436019
0.00436019
0.00433327
0.00430619
0.00427894
0.0042515
0.00422389
0.0041961
0.00416814
0.00414
0.00411167
0.00408317
0.00405449
0.00402563
0.00399658
0.00396736
0.00393794
0.00390835
0.00387856
0.00384859
0.00381843
0.00378809
0.00375755
0.00372683
0.00369592
0.0036648
0.0036335
0.00360201
0.00357032
0.00353845
0.00350637
0.00347409
0.00344162
0.00340895
0.00337608
0.00334302
0.00330975
0.00327628
0.00324261
0.00320874
0.00317466
0.00314038
0.0031059
0.0030712
0.00303631
0.00300121
0.0029659
0.00293038
0.00289465
0.00285872
0.00282257
0.00278621
0.00274965
0.00271287
0.00267588
0.00263867
0.00260125
0.00256362
0.00252578
0.00248772
0.00244944
0.00241095
0.00237224
0.00233332
0.00229417
0.00225482
0.00221524
0.00217544
0.00213543
0.0020952
0.00205475
0.00201408
0.00197319
0.00193208
0.00189076
0.00184921
0.00180744
0.00176545
0.00172325
0.00168082
0.00163818
0.00159531
0.00155222
0.00150892
0.00146539
0.00142165
0.00137769
0.00133351
0.00128911
0.0012445
0.00119966
0.00115461
0.00110935
0.00106386
0.00101817
0.000972257
0.000926134
0.000879797
0.000833247
0.000786487
0.000739517
0.000692338
0.000644951
0.000597356
0.000549557
0.000501554
0.000453346
0.000404939
0.000356329
0.000320229
0.000318485
0.000316384
0.000313913
0.000311055
0.000307796
0.000304114
0.000299998
0.000295428
0.000290385
0.000284847
0.000292977
0.00034419
0.000395568
0.000447117
0.000498819
0.000550686
0.000602712
0.000654887
0.000707211
0.000759686
0.000812306
0.000865056
0.000917944
0.000970965
0.00102411
0.00107738
0.00113077
0.00118428
0.00123789
0.00129161
0.00134543
0.00139934
0.00145335
0.00150744
0.00156161
0.00161585
0.00167016
0.00172455
0.00177898
0.00183346
0.00188799
0.00194256
0.00199716
0.00205179
0.00210643
0.00216109
0.00221576
0.00227042
0.00232507
0.00237971
0.00243432
0.0024889
0.00254343
0.00259793
0.00265236
0.00270673
0.0122159
0.00426643
0.00426643
0.00423942
0.00421225
0.0041849
0.00415739
0.00412972
0.00410188
0.00407387
0.00404568
0.00401733
0.00398881
0.00396012
0.00393125
0.00390222
0.00387301
0.00384362
0.00381407
0.00378433
0.00375442
0.00372434
0.00369407
0.00366363
0.00363301
0.00360221
0.00357124
0.00354008
0.00350874
0.00347722
0.00344551
0.00341363
0.00338157
0.00334931
0.00331687
0.00328425
0.00325144
0.00321845
0.00318527
0.00315191
0.00311835
0.00308461
0.00305068
0.00301656
0.00298226
0.00294775
0.00291307
0.00287819
0.00284312
0.00280785
0.0027724
0.00273675
0.00270091
0.00266488
0.00262866
0.00259224
0.00255563
0.00251882
0.00248182
0.00244462
0.00240723
0.00236964
0.00233186
0.00229389
0.00225571
0.00221735
0.00217878
0.00214002
0.00210107
0.00206192
0.00202257
0.00198303
0.00194329
0.00190336
0.00186323
0.0018229
0.00178238
0.00174166
0.00170076
0.00165965
0.00161835
0.00157686
0.00153517
0.00149329
0.00145122
0.00140896
0.0013665
0.00132386
0.00128102
0.00123799
0.00119478
0.00115137
0.00110778
0.001064
0.00102003
0.000975885
0.000931546
0.000887032
0.000842331
0.00079745
0.000752391
0.000707152
0.000661736
0.000616143
0.00057038
0.000524437
0.000478327
0.000432048
0.000385597
0.000338983
0.000294226
0.000292129
0.000289679
0.000286859
0.000283651
0.000280037
0.000276006
0.00027154
0.000266615
0.000261218
0.00025533
0.000281263
0.000329991
0.000378848
0.000427835
0.000476946
0.000526182
0.000575543
0.000625012
0.000674593
0.000724287
0.000774087
0.000823989
0.000873983
0.000924075
0.00097426
0.00102453
0.00107488
0.0011253
0.0011758
0.00122637
0.001277
0.00132769
0.00137843
0.00142922
0.00148006
0.00153093
0.00158184
0.00163277
0.00168373
0.0017347
0.00178568
0.00183666
0.00188764
0.00193862
0.00198957
0.00204051
0.00209142
0.0021423
0.00219313
0.00224391
0.00229464
0.00234531
0.00239591
0.00244642
0.00249686
0.0025472
0.0162442
0.00417204
0.00417204
0.00414497
0.00411773
0.00409033
0.00406279
0.00403507
0.0040072
0.00397918
0.003951
0.00392265
0.00389414
0.00386547
0.00383664
0.00380764
0.00377849
0.00374916
0.00371968
0.00369003
0.00366021
0.00363024
0.00360009
0.00356978
0.0035393
0.00350866
0.00347784
0.00344686
0.00341571
0.00338439
0.0033529
0.00332124
0.00328942
0.00325742
0.00322525
0.00319291
0.0031604
0.00312772
0.00309486
0.00306183
0.00302863
0.00299526
0.00296171
0.00292799
0.0028941
0.00286003
0.00282579
0.00279137
0.00275678
0.00272202
0.00268707
0.00265196
0.00261667
0.0025812
0.00254556
0.00250974
0.00247374
0.00243758
0.00240123
0.00236471
0.00232802
0.00229114
0.0022541
0.00221687
0.00217948
0.0021419
0.00210416
0.00206623
0.00202813
0.00198986
0.00195142
0.0019128
0.001874
0.00183504
0.00179589
0.00175658
0.0017171
0.00167744
0.00163761
0.00159761
0.00155744
0.0015171
0.0014766
0.00143592
0.00139507
0.00135407
0.00131289
0.00127155
0.00123004
0.00118837
0.00114654
0.00110454
0.00106238
0.00102007
0.000977589
0.000934958
0.000892168
0.000849224
0.000806126
0.000762873
0.000719471
0.00067592
0.000632219
0.000588372
0.000544379
0.000500242
0.000455964
0.000411547
0.00036699
0.000322298
0.000277469
0.000266503
0.000263695
0.000260512
0.000256941
0.00025297
0.000248576
0.000243743
0.000238453
0.000232688
0.000226432
0.000270149
0.000316518
0.000362985
0.000409551
0.000456213
0.000502963
0.000549791
0.000596719
0.000643725
0.000690797
0.000737948
0.000785174
0.000832467
0.000879819
0.000927226
0.000974684
0.0010222
0.00106976
0.00111736
0.001165
0.00121266
0.00126036
0.00130809
0.00135582
0.00140357
0.00145133
0.0014991
0.00154686
0.00159461
0.00164234
0.00169007
0.00173776
0.00178543
0.00183305
0.00188065
0.00192819
0.00197566
0.00202309
0.00207045
0.00211774
0.00216494
0.00221205
0.00225908
0.002306
0.00235282
0.00239952
0.020477
0.00407715
0.00407715
0.00405004
0.00402278
0.00399536
0.0039678
0.00394009
0.00391223
0.00388422
0.00385606
0.00382775
0.00379929
0.00377067
0.00374191
0.003713
0.00368392
0.00365469
0.00362532
0.00359579
0.0035661
0.00353627
0.00350627
0.00347612
0.00344582
0.00341536
0.00338475
0.00335397
0.00332305
0.00329197
0.00326073
0.00322934
0.00319778
0.00316607
0.0031342
0.00310218
0.00307
0.00303766
0.00300516
0.0029725
0.00293969
0.00290672
0.00287358
0.0028403
0.00280685
0.00277324
0.00273948
0.00270556
0.00267147
0.00263723
0.00260283
0.00256827
0.00253356
0.00249869
0.00246365
0.00242846
0.00239312
0.00235761
0.00232194
0.00228612
0.00225015
0.00221401
0.00217772
0.00214127
0.00210467
0.0020679
0.00203099
0.00199392
0.00195669
0.00191932
0.00188178
0.0018441
0.00180625
0.00176827
0.00173012
0.00169183
0.00165338
0.00161479
0.00157604
0.00153715
0.00149811
0.00145892
0.00141959
0.00138011
0.00134049
0.00130072
0.00126081
0.00122076
0.00118057
0.00114024
0.00109977
0.00105916
0.00101842
0.000977536
0.000936524
0.000895376
0.000854102
0.000812694
0.00077116
0.000729497
0.000687711
0.000645801
0.000603766
0.000561612
0.000519339
0.000476951
0.000434445
0.000391828
0.000349096
0.000306259
0.000263311
0.000241522
0.000238348
0.000234801
0.000230865
0.000226517
0.000221747
0.000216536
0.000210868
0.000203784
0.000215547
0.000259601
0.00030373
0.000347934
0.000392205
0.000436539
0.000480942
0.000525408
0.000569915
0.000614483
0.000659113
0.00070378
0.000748485
0.000793231
0.000838009
0.000882824
0.000927669
0.000972533
0.00101742
0.00106232
0.00110722
0.00115214
0.00119706
0.00124197
0.00128688
0.00133178
0.00137665
0.00142151
0.00146634
0.00151114
0.0015559
0.00160062
0.0016453
0.00168991
0.00173448
0.00177898
0.00182341
0.00186776
0.00191204
0.00195622
0.00200031
0.00204431
0.0020882
0.00213198
0.00217563
0.00221917
0.00226257
0.0249254
0.0039819
0.0039819
0.00395477
0.00392751
0.00390012
0.00387258
0.0038449
0.00381708
0.00378912
0.00376102
0.00373278
0.00370439
0.00367588
0.00364721
0.00361839
0.00358945
0.00356036
0.00353111
0.00350174
0.00347221
0.00344255
0.00341274
0.00338279
0.0033527
0.00332246
0.00329208
0.00326155
0.00323089
0.00320008
0.00316912
0.00313802
0.00310677
0.00307538
0.00304385
0.00301217
0.00298035
0.00294838
0.00291628
0.00288403
0.00285163
0.00281909
0.0027864
0.00275358
0.0027206
0.00268749
0.00265423
0.00262082
0.00258728
0.0025536
0.00251976
0.00248579
0.00245168
0.00241742
0.00238302
0.00234849
0.00231381
0.00227898
0.00224403
0.00220892
0.00217368
0.0021383
0.00210279
0.00206713
0.00203133
0.00199541
0.00195934
0.00192313
0.00188679
0.00185032
0.00181371
0.00177696
0.00174009
0.00170308
0.00166594
0.00162866
0.00159127
0.00155373
0.00151607
0.00147829
0.00144037
0.00140233
0.00136417
0.00132587
0.00128746
0.00124893
0.00121027
0.0011715
0.0011326
0.00109359
0.00105446
0.00101522
0.000975865
0.000936394
0.000896818
0.000857125
0.00081733
0.000777423
0.000737413
0.000697302
0.000657085
0.000616769
0.000576355
0.000535845
0.000495238
0.000454539
0.000413748
0.000372867
0.000331899
0.000290847
0.00024971
0.000217135
0.00021359
0.000209668
0.000205352
0.000200625
0.000195469
0.000186572
0.000177345
0.000167929
0.000207635
0.00024959
0.000291592
0.000333646
0.000375744
0.000417882
0.000460062
0.000502276
0.000544529
0.000586809
0.000629107
0.000671433
0.000713779
0.000756144
0.000798517
0.000840899
0.000883287
0.000925672
0.000968057
0.00101044
0.00105281
0.00109515
0.00113748
0.00117979
0.00122207
0.00126432
0.00130653
0.0013487
0.00139082
0.00143289
0.00147491
0.00151686
0.00155875
0.00160058
0.00164232
0.00168398
0.00172555
0.00176704
0.00180843
0.00184972
0.00189089
0.00193196
0.0019729
0.00201372
0.00205441
0.00209497
0.00213538
0.0296005
0.0038864
0.0038864
0.00385931
0.00383209
0.00380473
0.00377724
0.00374964
0.00372189
0.00369401
0.003666
0.00363786
0.00360959
0.00358119
0.00355265
0.00352399
0.00349519
0.00346626
0.0034372
0.00340801
0.00337868
0.00334923
0.00331964
0.00328992
0.00326007
0.00323008
0.00319997
0.00316972
0.00313934
0.00310882
0.00307818
0.00304741
0.00301651
0.00298547
0.0029543
0.00292301
0.00289158
0.00286002
0.00282832
0.0027965
0.00276456
0.00273248
0.00270026
0.00266793
0.00263546
0.00260286
0.00257014
0.00253728
0.0025043
0.00247119
0.00243796
0.00240459
0.0023711
0.00233749
0.00230375
0.00226988
0.00223589
0.00220178
0.00216754
0.00213318
0.00209869
0.00206408
0.00202935
0.00199451
0.00195954
0.00192445
0.00188923
0.00185391
0.00181847
0.0017829
0.00174722
0.00171143
0.00167552
0.0016395
0.00160337
0.00156712
0.00153076
0.00149429
0.00145771
0.00142102
0.00138423
0.00134733
0.00131032
0.00127321
0.001236
0.00119868
0.00116126
0.00112375
0.00108613
0.00104842
0.00101061
0.000972708
0.000934715
0.000896624
0.000858449
0.000820182
0.000781828
0.00074339
0.000704865
0.00066626
0.000627572
0.000588806
0.000549962
0.000511043
0.000472051
0.000432986
0.000393851
0.000354648
0.000315379
0.000276048
0.000236652
0.000197197
0.000189364
0.000185053
0.000178364
0.000170128
0.000161718
0.000153134
0.000144378
0.000160203
0.000200126
0.000240083
0.000280068
0.000320081
0.000360121
0.00040018
0.00044026
0.000480355
0.000520459
0.000560576
0.0006007
0.000640825
0.000680945
0.000721063
0.000761184
0.000801285
0.000841372
0.000881443
0.000921493
0.000961511
0.00100151
0.00104147
0.00108139
0.00112128
0.00116111
0.0012009
0.00124064
0.00128031
0.00131992
0.00135947
0.00139895
0.00143836
0.00147767
0.00151691
0.00155606
0.00159512
0.00163407
0.00167292
0.00171166
0.00175029
0.00178879
0.00182718
0.00186544
0.00190356
0.00194153
0.00197937
0.00201706
0.0345144
0.00379081
0.00379081
0.00376377
0.00373662
0.00370935
0.00368195
0.00365443
0.00362678
0.00359902
0.00357113
0.00354313
0.00351501
0.00348676
0.00345839
0.0034299
0.00340129
0.00337255
0.0033437
0.00331472
0.00328563
0.00325641
0.00322707
0.00319761
0.00316804
0.00313834
0.00310852
0.00307858
0.00304852
0.00301834
0.00298805
0.00295763
0.00292709
0.00289644
0.00286567
0.00283478
0.00280377
0.00277265
0.0027414
0.00271004
0.00267857
0.00264697
0.00261527
0.00258344
0.0025515
0.00251946
0.00248729
0.002455
0.00242261
0.0023901
0.00235748
0.00232475
0.00229191
0.00225895
0.00222589
0.00219271
0.00215943
0.00212604
0.00209254
0.00205893
0.00202522
0.0019914
0.00195747
0.00192344
0.00188931
0.00185507
0.00182073
0.00178629
0.00175175
0.0017171
0.00168236
0.00164752
0.00161258
0.00157755
0.00154242
0.0015072
0.00147188
0.00143646
0.00140096
0.00136537
0.00132968
0.00129392
0.00125806
0.00122211
0.00118608
0.00114997
0.00111378
0.0010775
0.00104114
0.00100471
0.000968194
0.000931607
0.000894942
0.00085821
0.000821401
0.000784525
0.000747578
0.00071057
0.000673489
0.00063635
0.000599146
0.000561885
0.000524564
0.000487186
0.000449754
0.000412269
0.000374734
0.000337148
0.000299516
0.000261839
0.000224118
0.000186359
0.000162005
0.00015449
0.000146814
0.000138978
0.000130983
0.000122826
0.000116927
0.000154953
0.000192998
0.000231054
0.000269124
0.000307203
0.00034529
0.00038338
0.000421469
0.000459562
0.000497648
0.000535716
0.000573781
0.000611835
0.000649873
0.000687889
0.000725877
0.000763836
0.000801769
0.000839672
0.000877535
0.000915354
0.000953137
0.000990868
0.00102854
0.00106617
0.00110373
0.00114123
0.00117866
0.00121603
0.00125332
0.00129053
0.00132765
0.0013647
0.00140165
0.0014385
0.00147525
0.0015119
0.00154844
0.00158486
0.00162118
0.00165736
0.00169342
0.00172934
0.00176514
0.00180079
0.00183629
0.00187164
0.00190684
0.0396793
0.00369524
0.00369524
0.00366829
0.00364124
0.00361407
0.0035868
0.0035594
0.0035319
0.00350429
0.00347656
0.00344871
0.00342076
0.0033927
0.00336453
0.00333625
0.00330785
0.00327935
0.00325073
0.003222
0.00319317
0.00316423
0.00313516
0.003106
0.00307672
0.00304734
0.00301785
0.00298825
0.00295854
0.00292873
0.0028988
0.00286877
0.00283864
0.00280839
0.00277805
0.00274759
0.00271703
0.00268637
0.0026556
0.00262473
0.00259375
0.00256267
0.00253149
0.00250021
0.00246882
0.00243734
0.00240575
0.00237407
0.00234228
0.00231039
0.00227841
0.00224633
0.00221415
0.00218188
0.00214951
0.00211704
0.00208448
0.00205183
0.00201908
0.00198624
0.00195332
0.00192029
0.00188718
0.00185398
0.00182069
0.00178731
0.00175385
0.0017203
0.00168666
0.00165294
0.00161914
0.00158525
0.00155129
0.00151724
0.00148311
0.00144891
0.00141462
0.00138027
0.00134583
0.00131132
0.00127675
0.00124209
0.00120737
0.00117258
0.00113771
0.00110279
0.0010678
0.00103274
0.000997617
0.000962436
0.000927193
0.000891894
0.000856533
0.000821121
0.000785651
0.000750132
0.000714556
0.000678935
0.000643263
0.000607549
0.000571784
0.000535982
0.000500133
0.00046425
0.000428324
0.000392365
0.000356373
0.000320345
0.000284293
0.000248208
0.000212096
0.000175965
0.000139807
0.000125498
0.000118188
0.000110725
0.000103112
9.53553e-05
0.00011372
0.000149972
0.000186226
0.000222479
0.000258729
0.000294972
0.000331208
0.000367431
0.00040364
0.000439831
0.000476005
0.000512158
0.000548285
0.000584381
0.000620449
0.000656478
0.000692471
0.000728435
0.000764346
0.000800202
0.000836022
0.000871788
0.000907492
0.000943133
0.000978717
0.00101423
0.00104968
0.00108506
0.00112035
0.00115556
0.00119069
0.00122573
0.00126068
0.00129553
0.00133028
0.00136493
0.00139947
0.0014339
0.00146821
0.00150241
0.00153647
0.00157041
0.00160422
0.00163789
0.00167142
0.0017048
0.00173803
0.00177111
0.00180403
0.045108
0.00359982
0.00359982
0.00357301
0.00354608
0.00351905
0.00349192
0.00346469
0.00343735
0.00340992
0.00338238
0.00335474
0.003327
0.00329914
0.0032712
0.00324316
0.00321501
0.00318676
0.00315841
0.00312996
0.00310141
0.00307278
0.00304403
0.00301519
0.00298624
0.00295721
0.00292807
0.00289884
0.00286951
0.00284009
0.00281056
0.00278095
0.00275124
0.00272143
0.00269153
0.00266154
0.00263146
0.00260128
0.00257101
0.00254064
0.00251019
0.00247966
0.00244902
0.0024183
0.00238749
0.00235659
0.00232561
0.00229454
0.00226338
0.00223214
0.00220081
0.00216939
0.0021379
0.00210632
0.00207466
0.00204292
0.0020111
0.0019792
0.00194721
0.00191515
0.00188301
0.0018508
0.00181851
0.00178615
0.00175371
0.0017212
0.00168861
0.00165596
0.00162323
0.00159044
0.00155757
0.00152464
0.00149164
0.00145858
0.00142545
0.00139226
0.00135901
0.00132569
0.00129232
0.00125889
0.0012254
0.00119185
0.00115824
0.00112459
0.00109088
0.00105712
0.00102331
0.000989451
0.000955541
0.000921586
0.000887589
0.000853547
0.000819462
0.000785338
0.000751173
0.000716973
0.000682736
0.000648465
0.00061416
0.000579826
0.000545458
0.000511068
0.000476647
0.000442205
0.00040774
0.000373252
0.000338745
0.000304224
0.000269685
0.000235131
0.000200568
0.000165997
0.000131416
9.91745e-05
9.21971e-05
8.50864e-05
7.78381e-05
7.61046e-05
0.000110681
0.000145243
0.000179794
0.000214334
0.000248853
0.000283354
0.000317834
0.000352288
0.000386717
0.000421117
0.000455483
0.000489819
0.000524114
0.000558367
0.000592577
0.000626746
0.000660868
0.00069493
0.000728949
0.000762906
0.000796797
0.000830628
0.000864402
0.000898099
0.000931722
0.000965271
0.000998737
0.00103213
0.00106543
0.00109864
0.00113176
0.00116479
0.00119771
0.00123053
0.00126325
0.00129586
0.00132835
0.00136073
0.00139298
0.00142511
0.00145711
0.00148897
0.00152071
0.0015523
0.00158375
0.00161505
0.0016462
0.00167718
0.00170802
0.050814
0.0035047
0.0035047
0.00347803
0.00345126
0.00342441
0.00339746
0.00337042
0.00334328
0.00331605
0.00328873
0.00326131
0.00323381
0.00320621
0.00317852
0.00315074
0.00312287
0.00309491
0.00306687
0.00303872
0.00301049
0.00298218
0.00295377
0.00292528
0.0028967
0.00286804
0.00283928
0.00281045
0.00278152
0.00275251
0.00272342
0.00269425
0.00266499
0.00263564
0.00260622
0.00257671
0.00254712
0.00251746
0.00248771
0.00245788
0.00242797
0.00239799
0.00236793
0.00233779
0.00230757
0.00227728
0.00224692
0.00221648
0.00218597
0.00215538
0.00212472
0.00209399
0.0020632
0.00203233
0.00200139
0.00197038
0.00193931
0.00190817
0.00187696
0.00184569
0.00181436
0.00178295
0.00175149
0.00171997
0.00168839
0.00165675
0.00162504
0.00159328
0.00156147
0.0015296
0.00149767
0.00146569
0.00143366
0.00140158
0.00136944
0.00133726
0.00130502
0.00127275
0.00124042
0.00120805
0.00117563
0.00114318
0.00111068
0.00107814
0.00104556
0.00101295
0.000980296
0.00094761
0.000914892
0.000882138
0.000849355
0.000816544
0.000783702
0.000750836
0.000717945
0.000685026
0.00065209
0.00061913
0.000586152
0.000553157
0.000520143
0.000487121
0.000454079
0.000421028
0.000387972
0.000354906
0.00032183
0.000288755
0.000255678
0.000222597
0.000189518
0.000156446
0.000123374
9.03135e-05
6.86267e-05
6.18349e-05
5.49153e-05
7.48208e-05
0.000107799
0.000140753
0.000173684
0.000206592
0.000239468
0.000272314
0.00030513
0.000337909
0.000370651
0.000403352
0.000436016
0.000468627
0.000501191
0.00053371
0.000566183
0.00059859
0.000630944
0.000663234
0.000695462
0.00072763
0.000759724
0.000791748
0.000823698
0.000855572
0.000887365
0.000919076
0.000950698
0.000982237
0.00101368
0.00104503
0.00107628
0.00110743
0.00113847
0.00116941
0.00120023
0.00123095
0.00126154
0.00129202
0.00132236
0.00135258
0.00138268
0.00141263
0.00144245
0.00147212
0.00150166
0.00153104
0.00156026
0.00158934
0.00161825
0.0568114
0.00340997
0.00340997
0.00338349
0.00335693
0.00333027
0.00330352
0.00327669
0.00324979
0.0032228
0.00319572
0.00316856
0.00314132
0.00311401
0.0030866
0.00305911
0.00303155
0.0030039
0.00297618
0.00294838
0.0029205
0.00289254
0.0028645
0.00283638
0.00280819
0.00277993
0.00275159
0.00272316
0.00269467
0.00266611
0.00263747
0.00260875
0.00257997
0.00255111
0.00252218
0.00249318
0.00246412
0.00243498
0.00240577
0.0023765
0.00234716
0.00231775
0.00228828
0.00225874
0.00222914
0.00219948
0.00216974
0.00213995
0.0021101
0.00208019
0.00205021
0.00202018
0.00199009
0.00195994
0.00192974
0.00189947
0.00186916
0.00183879
0.00180837
0.00177789
0.00174736
0.00171678
0.00168615
0.00165547
0.00162475
0.00159398
0.00156316
0.00153229
0.00150139
0.00147044
0.00143944
0.00140841
0.00137734
0.00134622
0.00131508
0.00128389
0.00125266
0.00122141
0.00119012
0.0011588
0.00112744
0.00109606
0.00106465
0.00103321
0.00100174
0.000970252
0.000938738
0.0009072
0.000875643
0.000844065
0.000812472
0.000780859
0.000749228
0.000717588
0.000685933
0.000654265
0.00062259
0.000590903
0.00055921
0.000527515
0.000495812
0.000464108
0.000432403
0.000400698
0.000368999
0.000337298
0.000305609
0.000273923
0.000242249
0.000210583
0.00017893
0.000147297
0.000115671
8.4071e-05
5.24867e-05
4.0749e-05
4.21229e-05
7.36114e-05
0.000105064
0.000136489
0.000167877
0.000199232
0.000230548
0.000261826
0.000293059
0.000324251
0.000355394
0.00038649
0.000417531
0.000448527
0.000479463
0.000510338
0.000541159
0.000571914
0.0006026
0.000633226
0.000663781
0.000694258
0.000724666
0.000754992
0.000785236
0.000815404
0.00084548
0.000875473
0.000905374
0.000935179
0.000964884
0.000994499
0.00102401
0.0010534
0.0010827
0.00111188
0.00114095
0.00116991
0.00119874
0.00122745
0.00125603
0.00128449
0.0013128
0.00134099
0.00136904
0.00139694
0.0014247
0.00145232
0.00147978
0.00150708
0.00153423
0.0631147
0.00331579
0.00331579
0.00328951
0.00326315
0.00323673
0.00321023
0.00318365
0.003157
0.00313028
0.00310348
0.0030766
0.00304966
0.00302264
0.00299555
0.00296838
0.00294116
0.00291386
0.00288648
0.00285904
0.00283153
0.00280395
0.00277631
0.0027486
0.00272082
0.00269297
0.00266506
0.00263708
0.00260905
0.00258095
0.00255278
0.00252455
0.00249626
0.00246791
0.00243951
0.00241104
0.00238251
0.00235392
0.00232528
0.00229657
0.00226782
0.002239
0.00221014
0.00218121
0.00215224
0.00212321
0.00209413
0.002065
0.00203583
0.00200659
0.00197732
0.00194799
0.00191862
0.0018892
0.00185974
0.00183023
0.00180068
0.00177108
0.00174145
0.00171177
0.00168205
0.00165229
0.0016225
0.00159267
0.0015628
0.0015329
0.00150296
0.00147299
0.00144299
0.00141295
0.00138289
0.00135279
0.00132267
0.00129252
0.00126235
0.00123215
0.00120192
0.00117167
0.00114141
0.00111111
0.0010808
0.00105048
0.00102013
0.000989775
0.000959395
0.00092901
0.000898609
0.000868196
0.000837773
0.000807345
0.000776907
0.000746465
0.000716016
0.000685564
0.000655111
0.000624659
0.000594206
0.000563755
0.000533309
0.00050287
0.000472435
0.000442008
0.000411592
0.000381186
0.000350795
0.000320414
0.000290053
0.000259706
0.000229383
0.000199073
0.000168792
0.000138533
0.000108298
7.80943e-05
4.79134e-05
2.16136e-05
4.24225e-05
7.24668e-05
0.00010247
0.000132434
0.000162358
0.000192236
0.00022207
0.000251855
0.000281591
0.000311273
0.000340905
0.000370479
0.000399996
0.00042945
0.000458846
0.000488176
0.000517437
0.000546634
0.000575764
0.000604806
0.000633779